9
Step 0: 0.0 fs
C        1.944660       -0.000002        0.630311
C        2.076367       -0.000008       -0.719397
C       -0.234857        0.000000        0.691182
Cl       -0.909816       -1.454233       -0.101228
Cl       -0.909805        1.454238       -0.101229
H        2.014267        0.919571        1.202552
H        2.014268       -0.919571        1.202559
H        2.093997        0.924877       -1.287963
H        2.093998       -0.924898       -1.287955
9
Step 1: 1.0 fs
C        1.939502        0.005534        0.630179
C        2.064931       -0.007680       -0.724358
C       -0.223295       -0.010723        0.692475
Cl       -0.911164       -1.453906       -0.100518
Cl       -0.909073        1.455922       -0.104025
H        2.048753        0.865857        1.267812
H        2.030214       -0.893130        1.204659
H        2.087640        0.926201       -1.286932
H        2.131238       -0.815612       -1.238742
9
Step 2: 2.0 fs
C        1.934363        0.010904        0.629944
C        2.053330       -0.010582       -0.726525
C       -0.211735       -0.021272        0.693675
Cl       -0.912504       -1.453592       -0.099806
Cl       -0.908315        1.457567       -0.106789
H        2.081909        0.817992        1.330887
H        2.046059       -0.873576        1.207765
H        2.080803        0.926862       -1.284916
H        2.171029       -0.759742       -1.221428
9
Step 3: 3.0 fs
C        1.929273        0.016032        0.629795
C        2.041015       -0.005420       -0.723863
C       -0.200183       -0.031493        0.694694
Cl       -0.913831       -1.453301       -0.099088
Cl       -0.907509        1.459140       -0.109493
H        2.112143        0.779063        1.388369
H        2.061697       -0.865925        1.211770
H        2.072880        0.927058       -1.281684
H        2.220856       -0.794157       -1.259341
9
Step 4: 4.0 fs
C        1.924310        0.020799        0.630379
C        2.028475        0.004301       -0.718776
C       -0.188655       -0.041249        0.695463
Cl       -0.915137       -1.453044       -0.098359
Cl       -0.906632        1.460612       -0.112112
H        2.137597        0.749688        1.435933
H        2.076699       -0.871416        1.214714
H        2.063303        0.928295       -1.278022
H        2.276033       -0.876888       -1.324633
9
Step 5: 5.0 fs
C        1.919607        0.024913        0.632501
C        2.016724        0.014506       -0.714076
C       -0.177179       -0.050426        0.695928
Cl       -0.916413       -1.452827       -0.097616
Cl       -0.905665        1.461959       -0.114626
H        2.156500        0.729299        1.469527
H        2.090193       -0.887553        1.213307
H        2.051732        0.932140       -1.275313
H        2.325273       -0.959705       -1.384861
9
Step 6: 6.0 fs
C        1.915298        0.027945        0.636749
C        2.006355        0.023352       -0.711004
C       -0.165783       -0.058929        0.696042
Cl       -0.917650       -1.452657       -0.096855
Cl       -0.904593        1.463163       -0.117017
H        2.167546        0.717173        1.486587
H        2.101112       -0.909789        1.204355
H        2.038057        0.939232       -1.274814
H        2.361799       -1.020310       -1.425432
9
Step 7: 7.0 fs
C        1.911463        0.029451        0.643286
C        1.997604        0.030265       -0.709890
C       -0.154490       -0.066674        0.695762
Cl       -0.918837       -1.452540       -0.096072
Cl       -0.903398        1.464208       -0.119272
H        2.170116        0.712958        1.486701
H        2.108564       -0.933378        1.185977
H        2.022280        0.949022       -1.277006
H        2.382708       -1.050659       -1.441687
9
Step 8: 8.0 fs
C        1.908090        0.029044        0.651792
C        1.990542        0.035183       -0.710710
C       -0.143312       -0.073590        0.695053
Cl       -0.919963       -1.452481       -0.095264
Cl       -0.902065        1.465082       -0.121376
H        2.164376        0.716942        1.471801
H        2.112086       -0.954527        1.158119
H        2.004428        0.959927       -1.281361
H        2.386833       -1.048135       -1.432683
9
Step 9: 9.0 fs
C        1.905060        0.026440        0.661517
C        1.985164        0.038241       -0.713275
C       -0.132250       -0.079614        0.693887
Cl       -0.921020       -1.452487       -0.094430
Cl       -0.900581        1.465776       -0.123319
H        2.151254        0.730135        1.445961
H        2.111773       -0.970962        1.122564
H        1.984554        0.969859       -1.286597
H        2.373767       -1.012367       -1.398974
9
Step 10: 10.0 fs
C        1.902161        0.021522        0.671432
C        1.981390        0.039722       -0.717245
C       -0.121300       -0.084695        0.692240
Cl       -0.921999       -1.452565       -0.093566
Cl       -0.898933        1.466280       -0.125093
H        2.132196        0.753864        1.414495
H        2.108326       -0.982225        1.082695
H        1.962766        0.976915       -1.291167
H        2.343920       -0.945277       -1.342668
9
Step 11: 11.0 fs
C        1.899135        0.014464        0.680465
C        1.978956        0.040273       -0.721957
C       -0.110451       -0.088796        0.690090
Cl       -0.922890       -1.452721       -0.092674
Cl       -0.897107        1.466589       -0.126689
H        2.108640        0.788482        1.382166
H        2.103016       -0.989793        1.043072
H        1.939252        0.979916       -1.293747
H        2.299760       -0.854369       -1.269580
9
Step 12: 12.0 fs
C        1.895736        0.005863        0.687757
C        1.977149        0.041651       -0.725975
C       -0.099699       -0.091898        0.687413
Cl       -0.923687       -1.452960       -0.091752
Cl       -0.895091        1.466699       -0.128101
H        2.081504        0.831583        1.351354
H        2.097527       -0.996757        1.008729
H        1.914302        0.978670       -1.293618
H        2.249037       -0.761842       -1.194684
9
Step 13: 13.0 fs
C        1.891769       -0.003323        0.692804
C        1.974517        0.047751       -0.726599
C       -0.089048       -0.094006        0.684182
Cl       -0.924381       -1.453284       -0.090798
Cl       -0.892874        1.466605       -0.129324
H        2.051223        0.877390        1.321849
H        2.093554       -1.006587        0.984170
H        1.888322        0.974020       -1.290940
H        2.208220       -0.716840       -1.148191
9
Step 14: 14.0 fs
C        1.887094       -0.012076        0.695460
C        1.969949        0.061837       -0.721638
C       -0.078521       -0.095149        0.680382
Cl       -0.924963       -1.453691       -0.089811
Cl       -0.890445        1.466307       -0.130354
H        2.018266        0.918395        1.292454
H        2.092268       -1.021053        0.972351
H        1.861702        0.968257       -1.286959
H        2.189738       -0.763026       -1.154925
9
Step 15: 15.0 fs
C        1.881623       -0.019670        0.695891
C        1.964434        0.080182       -0.712758
C       -0.068170       -0.095376        0.676021
Cl       -0.925422       -1.454179       -0.088792
Cl       -0.887796        1.465806       -0.131191
H        1.983492        0.947939        1.262703
H        2.093925       -1.038622        0.974193
H        1.834551        0.965489       -1.284010
H        2.181640       -0.863263       -1.195202
9
Step 16: 16.0 fs
C        1.875308       -0.025847        0.694408
C        1.959090        0.097620       -0.702400
C       -0.058065       -0.094755        0.671118
Cl       -0.925748       -1.454741       -0.087742
Cl       -0.884920        1.465108       -0.131839
H        1.948151        0.961988        1.233442
H        2.097936       -1.054814        0.988782
H        1.806788        0.969458       -1.284371
H        2.170795       -0.962843       -1.241456
9
Step 17: 17.0 fs
C        1.868123       -0.030743        0.691369
C        1.954296        0.111618       -0.692020
C       -0.048291       -0.093370        0.665684
Cl       -0.925928       -1.455368       -0.086657
Cl       -0.881811        1.464216       -0.132297
H        1.913702        0.959746        1.206693
H        2.103239       -1.064180        1.013960
H        1.778603        0.980751       -1.288465
H        2.152774       -1.034731       -1.280238
9
Step 18: 18.0 fs
C        1.860045       -0.034718        0.687162
C        1.950048        0.121459       -0.682648
C       -0.038937       -0.091315        0.659725
Cl       -0.925951       -1.456047       -0.085536
Cl       -0.878463        1.463135       -0.132568
H        1.881611        0.943662        1.185383
H        2.108706       -1.062310        1.046967
H        1.750819        0.996283       -1.294103
H        2.127261       -1.069279       -1.306343
9
Step 19: 19.0 fs
C        1.851039       -0.038225        0.682182
C        1.946194        0.127202       -0.675233
C       -0.030089       -0.088686        0.653238
Cl       -0.925806       -1.456767       -0.084375
Cl       -0.874873        1.461866       -0.132653
H        1.853152        0.919060        1.173017
H        2.113431       -1.047018        1.084957
H        1.724805        1.011146       -1.297499
H        2.095228       -1.063777       -1.317698
9
Step 20: 20.0 fs
C        1.841058       -0.041668        0.676825
C        1.942536        0.129132       -0.670626
C       -0.021811       -0.085578        0.646217
Cl       -0.925485       -1.457517       -0.083172
Cl       -0.871038        1.460413       -0.132552
H        1.829268        0.893002        1.173070
H        2.116899       -1.018788        1.125390
H        1.702037        1.020988       -1.294964
H        2.058073       -1.018337       -1.313460
9
Step 21: 21.0 fs
C        1.830032       -0.045212        0.671510
C        1.938867        0.127596       -0.669430
C       -0.014141       -0.082081        0.638646
Cl       -0.924979       -1.458290       -0.081926
Cl       -0.866957        1.458779       -0.132266
H        1.810545        0.871907        1.187759
H        2.119074       -0.980722        1.166330
H        1.683667        1.023508       -1.284099
H        2.017527       -0.935490       -1.293921
9
Step 22: 22.0 fs
C        1.817857       -0.048590        0.666737
C        1.934962        0.123199       -0.671764
C       -0.007071       -0.078278        0.630493
Cl       -0.924284       -1.459078       -0.080637
Cl       -0.862627        1.456965       -0.131794
H        1.797340        0.858715        1.216487
H        2.120380       -0.937985        1.206617
H        1.670245        1.019078       -1.264280
H        1.975819       -0.823030       -1.262192
9
Step 23: 23.0 fs
C        1.804404       -0.051159        0.663106
C        1.930585        0.117470       -0.676767
C       -0.000543       -0.074247        0.621711
Cl       -0.923395       -1.459874       -0.079303
Cl       -0.858048        1.454972       -0.131134
H        1.789878        0.851981        1.255133
H        2.121472       -0.896545        1.245704
H        1.661595        1.010883       -1.236710
H        1.935699       -0.701975       -1.229362
9
Step 24: 24.0 fs
C        1.789568       -0.052234        0.661244
C        1.925597        0.113853       -0.681835
C        0.005546       -0.070060        0.612234
Cl       -0.922304       -1.460668       -0.077917
Cl       -0.853219        1.452799       -0.130281
H        1.788188        0.847851        1.297137
H        2.122759       -0.861420        1.283006
H        1.656843        1.004555       -1.204138
H        1.899050       -0.617708       -1.223533
9
Step 25: 25.0 fs
C        1.773311       -0.051451        0.661746
C        1.920208        0.115853       -0.683722
C        0.011330       -0.065783        0.601989
Cl       -0.921006       -1.461449       -0.076474
Cl       -0.848141        1.450449       -0.129232
H        1.791925        0.842806        1.335640
H        2.123947       -0.835333        1.317073
H        1.654646        1.007088       -1.170201
H        1.863971       -0.616729       -1.278059
9
Step 26: 26.0 fs
C        1.755668       -0.048854        0.665171
C        1.914581        0.121228       -0.683369
C        0.016960       -0.061466        0.590924
Cl       -0.919492       -1.462204       -0.074964
Cl       -0.842818        1.447927       -0.127984
H        1.800310        0.835127        1.365303
H        2.123968       -0.818677        1.345358
H        1.653693        1.024562       -1.138394
H        1.829401       -0.675765       -1.376776
9
Step 27: 27.0 fs
C        1.736716       -0.044784        0.671881
C        1.908479        0.125977       -0.683848
C        0.022592       -0.057152        0.578991
Cl       -0.917756       -1.462923       -0.073376
Cl       -0.837259        1.445240       -0.126534
H        1.812289        0.825092        1.383066
H        2.121321       -0.810511        1.364934
H        1.653695        1.058074       -1.110654
H        1.798239       -0.745631       -1.479364
9
Step 28: 28.0 fs
C        1.716538       -0.039734        0.681846
C        1.901593        0.128534       -0.686862
C        0.028394       -0.052869        0.566134
Cl       -0.915791       -1.463594       -0.071699
Cl       -0.831474        1.442402       -0.124878
H        1.826804        0.814646        1.388256
H        2.114523       -0.809615        1.373554
H        1.655846        1.102002       -1.086711
H        1.772656       -0.799829       -1.562457
9
Step 29: 29.0 fs
C        1.695202       -0.034241        0.694606
C        1.893651        0.128955       -0.692904
C        0.034538       -0.048638        0.552273
Cl       -0.913585       -1.464203       -0.069915
Cl       -0.825481        1.439426       -0.123012
H        1.843016        0.806967        1.382424
H        2.102456       -0.815066        1.370314
H        1.661988        1.146912       -1.065157
H        1.753381       -0.828046       -1.616565
9
Step 30: 30.0 fs
C        1.672753       -0.028822        0.709354
C        1.884435        0.127771       -0.701840
C        0.041195       -0.044457        0.537310
Cl       -0.911130       -1.464738       -0.068007
Cl       -0.819298        1.436330       -0.120928
H        1.860449        0.805843        1.368843
H        2.084528       -0.826334        1.355809
H        1.673507        1.183730       -1.044924
H        1.740451       -0.826699       -1.638278
9
Step 31: 31.0 fs
C        1.649235       -0.023901        0.725110
C        1.873791        0.125470       -0.713195
C        0.048514       -0.040308        0.521125
Cl       -0.908414       -1.465190       -0.065958
Cl       -0.812949        1.433136       -0.118620
H        1.878923        0.814463        1.351413
H        2.060692       -0.843138        1.331932
H        1.690846        1.206192       -1.025937
H        1.733599       -0.795075       -1.626855
9
Step 32: 32.0 fs
C        1.624750       -0.019694        0.740941
C        1.861635        0.122418       -0.726252
C        0.056604       -0.036158        0.503579
Cl       -0.905428       -1.465550       -0.063749
Cl       -0.806460        1.429867       -0.116082
H        1.898124        0.833661        1.333153
H        2.031380       -0.865159        1.301463
H        1.713543        1.211576       -1.009017
H        1.732262       -0.734901       -1.583879
9
Step 33: 33.0 fs
C        1.599530       -0.016148        0.756132
C        1.847976        0.119075       -0.739892
C        0.065507       -0.031968        0.484510
Cl       -0.902161       -1.465812       -0.061364
Cl       -0.799861        1.426554       -0.113310
H        1.916989        0.860692        1.315253
H        1.997332       -0.891691        1.267509
H        1.740468        1.200776       -0.995584
H        1.735176       -0.652908       -1.515794
9
Step 34: 34.0 fs
C        1.573973       -0.013024        0.770223
C        1.832994        0.116615       -0.752041
C        0.075190       -0.027695        0.463731
Cl       -0.898606       -1.465968       -0.058789
Cl       -0.793183        1.423232       -0.110304
H        1.933495        0.889842        1.297492
H        1.959375       -0.921282        1.232954
H        1.770114        1.178331       -0.987373
H        1.739360       -0.568113       -1.441089
9
Step 35: 35.0 fs
C        1.548608       -0.010095        0.782938
C        1.817109        0.117740       -0.758906
C        0.085536       -0.023300        0.441033
Cl       -0.894755       -1.466013       -0.056011
Cl       -0.786462        1.419939       -0.107064
H        1.945150        0.914569        1.279457
H        1.918270       -0.951584        1.200115
H        1.800947        1.152224       -0.986208
H        1.739158       -0.521225       -1.399590
9
Step 36: 36.0 fs
C        1.524016       -0.007275        0.794139
C        1.800616        0.124655       -0.757101
C        0.096349       -0.018747        0.416187
Cl       -0.890604       -1.465943       -0.053021
Cl       -0.779738        1.416722       -0.103598
H        1.949736        0.929595        1.261498
H        1.874754       -0.979620        1.170704
H        1.831791        1.132907       -0.993850
H        1.730401       -0.549846       -1.427641
9
Step 37: 37.0 fs
C        1.500759       -0.004643        0.803791
C        1.783113        0.134223       -0.748697
C        0.107369       -0.014001        0.388958
Cl       -0.886154       -1.465756       -0.049816
Cl       -0.773059        1.413638       -0.099913
H        1.945899        0.932080        1.245069
H        1.829717       -1.002439        1.146024
H        1.862089        1.130035       -1.011663
H        1.716990       -0.627883       -1.498545
9
Step 38: 38.0 fs
C        1.479320       -0.002422        0.811902
C        1.764125        0.142398       -0.737394
C        0.118303       -0.009031        0.359094
Cl       -0.881408       -1.465453       -0.046398
Cl       -0.766484        1.410749       -0.096023
H        1.933531        0.922025        1.232552
H        1.784331       -1.017853        1.127225
H        1.891512        1.145256       -1.039298
H        1.703686       -0.710917       -1.568800
9
Step 39: 39.0 fs
C        1.460033       -0.000950        0.818485
C        1.743476        0.147784       -0.725378
C        0.128886       -0.003829        0.326334
Cl       -0.876372       -1.465033       -0.042774
Cl       -0.760073        1.408126       -0.091938
H        1.913972        0.902298        1.226988
H        1.740061       -1.025012        1.115436
H        1.918816        1.169694       -1.073380
H        1.692555       -0.775617       -1.616224
9
Step 40: 40.0 fs
C        1.443047       -0.000629        0.823550
C        1.721184        0.150544       -0.713853
C        0.138945        0.001589        0.290430
Cl       -0.871056       -1.464504       -0.038957
Cl       -0.753892        1.405846       -0.087676
H        1.889916        0.878257        1.231832
H        1.698580       -1.024678        1.111759
H        1.941632        1.190538       -1.108422
H        1.684347       -0.813225       -1.632731
9
Step 41: 41.0 fs
C        1.428331       -0.001806        0.827112
C        1.697313        0.151139       -0.703557
C        0.148457        0.007169        0.251198
Cl       -0.865475       -1.463872       -0.034968
Cl       -0.748013        1.403992       -0.083252
H        1.864668        0.856408        1.250418
H        1.661554       -1.019157        1.117158
H        1.957393        1.197719       -1.138913
H        1.679415       -0.821173       -1.616001
9
Step 42: 42.0 fs
C        1.415786       -0.004589        0.829255
C        1.671918        0.149876       -0.694934
C        0.157562        0.012828        0.208577
Cl       -0.859648       -1.463153       -0.030836
Cl       -0.742503        1.402651       -0.078688
H        1.840610        0.841660        1.284744
H        1.630359       -1.011804        1.132288
H        1.964123        1.185990       -1.160601
H        1.677993       -0.799681       -1.566223
9
Step 43: 43.0 fs
C        1.405364       -0.008694        0.830235
C        1.645047        0.146914       -0.688123
C        0.166543        0.018449        0.162684
Cl       -0.853598       -1.462364       -0.026597
Cl       -0.737435        1.401912       -0.074003
H        1.817694        0.834550        1.333910
H        1.605759       -1.005984        1.157202
H        1.960763        1.154623       -1.170942
H        1.680267       -0.751595       -1.485926
9
Step 44: 44.0 fs
C        1.397087       -0.013543        0.830550
C        1.616757        0.142555       -0.682746
C        0.175758        0.023884        0.113858
Cl       -0.847352       -1.461525       -0.022295
Cl       -0.732874        1.401864       -0.069220
H        1.793502        0.831116        1.393505
H        1.587676       -1.003718        1.190955
H        1.947415        1.107073       -1.169381
H        1.686611       -0.685362       -1.382520
9
Step 45: 45.0 fs
C        1.390935       -0.018561        0.830879
C        1.587027        0.137872       -0.677402
C        0.185532        0.028950        0.062683
Cl       -0.840932       -1.460658       -0.017979
Cl       -0.728875        1.402578       -0.064359
H        1.764888        0.825677        1.456775
H        1.575190       -1.004754        1.231239
H        1.925742        1.051180       -1.157863
H        1.698777       -0.622689       -1.274238
9
Step 46: 46.0 fs
C        1.386746       -0.023392        0.831944
C        1.555504        0.135313       -0.669364
C        0.196019        0.033430        0.009981
Cl       -0.834363       -1.459778       -0.013704
Cl       -0.725474        1.404106       -0.059442
H        1.729548        0.813763        1.516653
H        1.566820       -1.006864        1.274371
H        1.899428        0.999122       -1.141357
H        1.723249       -0.605546       -1.193601
9
Step 47: 47.0 fs
C        1.384187       -0.027880        0.834408
C        1.521806        0.136181       -0.657005
C        0.207002        0.037074       -0.043182
Cl       -0.827665       -1.458898       -0.009525
Cl       -0.722684        1.406471       -0.054492
H        1.686566        0.793473        1.567390
H        1.561005       -1.007187        1.315814
H        1.873907        0.965247       -1.127286
H        1.769320       -0.663899       -1.160099
9
Step 48: 48.0 fs
C        1.382798       -0.032000        0.838771
C        1.487393        0.137027       -0.642577
C        0.217647        0.039611       -0.095471
Cl       -0.820861       -1.458029       -0.005498
Cl       -0.720495        1.409661       -0.049537
H        1.636273        0.765637        1.605359
H        1.556463       -1.003687        1.351118
H        1.854090        0.959368       -1.122151
H        1.831530       -0.765758       -1.151324
9
Step 49: 49.0 fs
C        1.382071       -0.035830        0.845203
C        1.455562        0.134635       -0.629152
C        0.226322        0.040742       -0.145317
Cl       -0.813975       -1.457179       -0.001677
Cl       -0.718878        1.413637       -0.044607
H        1.579948        0.733586        1.629349
H        1.552285       -0.996051        1.376845
H        1.840619        0.978590       -1.126499
H        1.894900       -0.867427       -1.143272
9
Step 50: 50.0 fs
C        1.381533       -0.039525        0.853433
C        1.430222        0.128575       -0.619033
C        0.230658        0.040151       -0.191073
Cl       -0.807034       -1.456357        0.001888
Cl       -0.717793        1.418339       -0.039734
H        1.519408        0.702788        1.640780
H        1.547938       -0.985957        1.391125
H        1.829819        1.009669       -1.135102
H        1.948659       -0.946319       -1.126825
9
Step 51: 51.0 fs
C        1.380804       -0.043253        0.862765
C        1.414997        0.119684       -0.613666
C        0.228060        0.037559       -0.231333
Cl       -0.800072       -1.455573        0.005157
Cl       -0.717195        1.423700       -0.034954
H        1.456420        0.680070        1.643577
H        1.543292       -0.976854        1.393876
H        1.817505        1.038683       -1.141929
H        1.987205       -0.993809       -1.100506
9
Step 52: 52.0 fs
C        1.379635       -0.047086        0.872249
C        1.412263        0.108809       -0.613541
C        0.216672        0.032805       -0.265278
Cl       -0.793122       -1.454843        0.008100
Cl       -0.717043        1.429654       -0.030294
H        1.392107        0.671822        1.642836
H        1.538620       -0.973209        1.386680
H        1.801493        1.056313       -1.143154
H        2.007901       -1.007035       -1.065362
9
Step 53: 53.0 fs
C        1.377896       -0.050855        0.881021
C        1.422348        0.096413       -0.618222
C        0.196305        0.025892       -0.292834
Cl       -0.786227       -1.454188        0.010695
Cl       -0.717301        1.436144       -0.025779
H        1.326864        0.681133        1.642047
H        1.534430       -0.979126        1.372195
H        1.781907        1.058237       -1.137384
H        2.009797       -0.985473       -1.023238
9
Step 54: 54.0 fs
C        1.375508       -0.054132        0.888602
C        1.443475        0.082660       -0.626553
C        0.168571        0.016979       -0.314522
Cl       -0.779438       -1.453641        0.012935
Cl       -0.717941        1.443121       -0.021423
H        1.261192        0.705582        1.640795
H        1.531101       -0.996478        1.353153
H        1.760743        1.044349       -1.125222
H        1.993748       -0.930898       -0.976786
9
Step 55: 55.0 fs
C        1.372369       -0.056423        0.894908
C        1.472380        0.067840       -0.636885
C        0.136168        0.006344       -0.331143
Cl       -0.772823       -1.453259        0.014822
Cl       -0.718942        1.450548       -0.017238
H        1.196725        0.738046        1.635505
H        1.528504       -1.023472        1.331449
H        1.741381        1.018508       -1.109130
H        1.964444       -0.851090       -0.930739
9
Step 56: 56.0 fs
C        1.368355       -0.057447        0.899990
C        1.504887        0.053278       -0.647080
C        0.101952       -0.005651       -0.343516
Cl       -0.766470       -1.453127        0.016379
Cl       -0.720291        1.458386       -0.013234
H        1.136312        0.769936        1.622296
H        1.525941       -1.054868        1.308019
H        1.727936        0.988467       -1.093367
H        1.935443       -0.769705       -0.894654
9
Step 57: 57.0 fs
C        1.363367       -0.057233        0.903787
C        1.536161        0.042424       -0.654479
C        0.068356       -0.018575       -0.352367
Cl       -0.760489       -1.453361        0.017643
Cl       -0.721979        1.466600       -0.009418
H        1.083205        0.794145        1.599100
H        1.522449       -1.083867        1.283461
H        1.724194        0.964478       -1.083236
H        1.933894       -0.737255       -0.885025
9
Step 58: 58.0 fs
C        1.357378       -0.056041        0.906030
C        1.562758        0.037854       -0.657102
C        0.037204       -0.031913       -0.358297
Cl       -0.754999       -1.454099        0.018660
Cl       -0.723999        1.475148       -0.005797
H        1.040102        0.806494        1.566285
H        1.517180       -1.104312        1.258720
H        1.732431        0.955773       -1.083317
H        1.979228       -0.792425       -0.913194
9
Step 59: 59.0 fs
C        1.350457       -0.054246        0.906278
C        1.585347        0.036017       -0.655439
C        0.009777       -0.045047       -0.361808
Cl       -0.750124       -1.455497        0.019485
Cl       -0.726349        1.483986       -0.002376
H        1.008484        0.806152        1.526501
H        1.509607       -1.112149        1.235354
H        1.752725        0.965663       -1.095235
H        2.050552       -0.895387       -0.966426
9
Step 60: 60.0 fs
C        1.342779       -0.052284        0.903941
C        1.605552        0.033191       -0.650937
C       -0.013012       -0.057300       -0.363330
Cl       -0.745980       -1.457717        0.020173
Cl       -0.729023        1.493060        0.000843
H        0.988310        0.795833        1.484327
H        1.499593       -1.106169        1.215379
H        1.782967        0.987904       -1.116087
H        2.121716       -0.994949       -1.026617
9
Step 61: 61.0 fs
C        1.334610       -0.050615        0.898331
C        1.624186        0.028399       -0.644823
C       -0.030507       -0.068005       -0.363217
Cl       -0.742671       -1.460911        0.020776
Cl       -0.732009        1.502313        0.003852
H        0.977952        0.781673        1.445790
H        1.487427       -1.088342        1.201077
H        1.819797        1.010495       -1.139925
H        2.179965       -1.066794       -1.082677
9
Step 62: 62.0 fs
C        1.326237       -0.049606        0.888774
C        1.641573        0.021935       -0.638021
C       -0.042268       -0.076565       -0.361737
Cl       -0.740276       -1.465206        0.021342
Cl       -0.735294        1.511681        0.006646
H        0.974707        0.771915        1.417257
H        1.473824       -1.063761        1.194893
H        1.859745        1.022480       -1.160726
H        2.220480       -1.102768       -1.128556
9
Step 63: 63.0 fs
C        1.317826       -0.049310        0.874811
C        1.657870        0.014274       -0.631242
C       -0.048033       -0.082517       -0.359057
Cl       -0.738848       -1.470689        0.021900
Cl       -0.738857        1.521103        0.009219
H        0.976400        0.773430        1.403237