9
  Step -250: -250.0 fs
C        3.958962        0.226565        0.601817
C        3.664825       -0.136673       -0.590089
C       -0.704718       -0.026570        0.531569
Cl       -1.571145       -1.468738       -0.137388
Cl       -1.531159        1.444355       -0.040992
H        3.411541        1.036226        1.066067
H        4.769162       -0.015415        1.219817
H        2.816087       -0.133353       -1.506396
H        4.420835       -0.797157       -1.085614
9
  Step -249: -249.0 fs
C        3.949720        0.227160        0.598358
C        3.657559       -0.142658       -0.586454
C       -0.710374       -0.013168        0.528576
Cl       -1.568431       -1.469377       -0.137644
Cl       -1.525521        1.440278       -0.039595
H        3.381152        1.062755        1.067658
H        4.772699       -0.021386        1.218206
H        2.856175       -0.101264       -1.475536
H        4.381714       -0.781537       -1.122507
9
  Step -248: -248.0 fs
C        3.939177        0.230734        0.597514
C        3.650000       -0.151105       -0.588337
C       -0.716457       -0.000135        0.525270
Cl       -1.565605       -1.469806       -0.137815
Cl       -1.519849        1.436117       -0.038175
H        3.349239        1.081456        1.069211
H        4.787079       -0.034120        1.216078
H        2.904542       -0.057521       -1.416283
H        4.343983       -0.769173       -1.152705
9
  Step -247: -247.0 fs
C        3.927721        0.237190        0.599545
C        3.642660       -0.161471       -0.594476
C       -0.722809        0.012309        0.521758
Cl       -1.562674       -1.470017       -0.137903
Cl       -1.514189        1.431942       -0.036766
H        3.320254        1.087576        1.068255
H        4.804733       -0.050587        1.209941
H        2.948167       -0.001592       -1.340328
H        4.313071       -0.764166       -1.176652
9
  Step -246: -246.0 fs
C        3.915820        0.245973        0.604099
C        3.636922       -0.173336       -0.602293
C       -0.729257        0.023922        0.518164
Cl       -1.559645       -1.470006       -0.137914
Cl       -1.508596        1.427831       -0.035406
H        3.296770        1.079632        1.063962
H        4.818323       -0.067644        1.197203
H        2.966018        0.069731       -1.269299
H        4.292722       -0.769802       -1.195825
9
  Step -245: -245.0 fs
C        3.903960        0.256196        0.610379
C        3.634269       -0.186607       -0.609221
C       -0.735614        0.034443        0.514619
Cl       -1.556526       -1.469768       -0.137853
Cl       -1.503123        1.423869       -0.034134
H        3.279231        1.059414        1.057071
H        4.822590       -0.082671        1.177338
H        2.939316        0.162347       -1.223076
H        4.283120       -0.786918       -1.211615
9
  Step -244: -244.0 fs
C        3.892661        0.266739        0.617349
C        3.634145       -0.200637       -0.614920
C       -0.741682        0.043602        0.511265
Cl       -1.553326       -1.469304       -0.137726
Cl       -1.497832        1.420148       -0.032994
H        3.265615        1.031889        1.049918
H        4.815112       -0.093866        1.151992
H        2.876115        0.273020       -1.196897
H        4.281019       -0.813429       -1.224475
9
  Step -243: -243.0 fs
C        3.882437        0.276377        0.623823
C        3.634469       -0.213805       -0.620291
C       -0.747264        0.051131        0.508248
Cl       -1.550053       -1.468611       -0.137538
Cl       -1.492779        1.416761       -0.032029
H        3.251502        1.004488        1.046220
H        4.796559       -0.100458        1.124575
H        2.803667        0.384788       -1.173541
H        4.281627       -0.845318       -1.233910
9
  Step -242: -242.0 fs
C        3.873608        0.284040        0.628583
C        3.633683       -0.224593       -0.625649
C       -0.752168        0.056772        0.505709
Cl       -1.546717       -1.467695       -0.137298
Cl       -1.488021        1.413799       -0.031280
H        3.231628        0.984739        1.049887
H        4.770616       -0.102930        1.099714
H        2.742795        0.480784       -1.144216
H        4.280378       -0.878062       -1.238983
9
  Step -241: -241.0 fs
C        3.866047        0.289174        0.630653
C        3.631076       -0.232080       -0.630739
C       -0.756222        0.060301        0.503781
Cl       -1.543327       -1.466557       -0.137012
Cl       -1.483608        1.411343       -0.030787
H        3.203352        0.976336        1.062732
H        4.743408       -0.103041        1.082636
H        2.703374        0.550715       -1.108176
H        4.273896       -0.907718       -1.238915
9
  Step -240: -240.0 fs
C        3.859107        0.291901        0.629559
C        3.626373       -0.235786       -0.635142
C       -0.759283        0.061542        0.502575
Cl       -1.539893       -1.465206       -0.136687
Cl       -1.479580        1.409460       -0.030581
H        3.169277        0.976965        1.082906
H        4.721723       -0.103225        1.078136
H        2.688837        0.589403       -1.067879
H        4.260309       -0.931517       -1.233511
9
  Step -239: -239.0 fs
C        3.852023        0.292704        0.625387
C        3.619459       -0.235471       -0.638472
C       -0.761243        0.060383        0.502178
Cl       -1.536422       -1.463650       -0.136329
Cl       -1.475963        1.408197       -0.030685
H        3.135808        0.980571        1.105872
H        4.709754       -0.105156        1.088984
H        2.699501        0.594596       -1.026649
H        4.239196       -0.948075       -1.223328
9
  Step -238: -238.0 fs
C        3.844441        0.291989        0.618719
C        3.610308       -0.231072       -0.640418
C       -0.762043        0.056791        0.502641
Cl       -1.532925       -1.461899       -0.135946
Cl       -1.472770        1.407577       -0.031108
H        3.109502        0.981236        1.126624
H        4.706388       -0.108417        1.114481
H        2.733578        0.566180       -0.988111
H        4.211399       -0.957400       -1.209642
9
  Step -237: -237.0 fs
C        3.836567        0.289926        0.610485
C        3.599107       -0.222802       -0.640719
C       -0.761665        0.050815        0.503982
Cl       -1.529408       -1.459965       -0.135544
Cl       -1.469997        1.407595       -0.031852
H        3.094682        0.975320        1.141173
H        4.705910       -0.110749        1.150506
H        2.785949        0.507316       -0.956567
H        4.178757       -0.960751       -1.194239
9
  Step -236: -236.0 fs
C        3.828915        0.286550        0.601778
C        3.586674       -0.211518       -0.639054
C       -0.760140        0.042589        0.506185
Cl       -1.525881       -1.457865       -0.135130
Cl       -1.467628        1.408222       -0.032904
H        3.092821        0.961832        1.147049
H        4.701402       -0.109628        1.191067
H        2.843740        0.428426       -0.938449
H        4.143726       -0.960286       -1.179055
9
  Step -235: -235.0 fs
C        3.822022        0.281905        0.593639
C        3.575153       -0.199285       -0.634785
C       -0.757533        0.032324        0.509205
Cl       -1.522352       -1.455617       -0.134711
Cl       -1.465629        1.409402       -0.034241
H        3.102659        0.942181        1.143496
H        4.687680       -0.103599        1.230043
H        2.878825        0.353231       -0.945183
H        4.108975       -0.958550       -1.165752
9
  Step -234: -234.0 fs
C        3.816297        0.276099        0.586893
C        3.567520       -0.188747       -0.627042
C       -0.753940        0.020291        0.512978
Cl       -1.518832       -1.453245       -0.134296
Cl       -1.463959        1.411067       -0.035833
H        3.120397        0.919961        1.131734
H        4.662540       -0.092724        1.262362
H        2.854170        0.310947       -0.992005
H        4.077209       -0.958061       -1.155452
9
  Step -233: -233.0 fs
C        3.812013        0.269311        0.582126
C        3.563553       -0.180021       -0.616532
C       -0.749473        0.006805        0.517423
Cl       -1.515330       -1.450773       -0.133893
Cl       -1.462569        1.413133       -0.037645
H        3.140027        0.900664        1.115034
H        4.626980       -0.078517        1.284810
H        2.771546        0.299049       -1.076995
H        4.051089       -0.961033       -1.148674
9
  Step -232: -232.0 fs
C        3.809276        0.261805        0.579727
C        3.559879       -0.171526       -0.606068
C       -0.744254       -0.007794        0.522455
Cl       -1.511856       -1.448230       -0.133510
Cl       -1.461408        1.415513       -0.039636
H        3.154468        0.890755        1.097855
H        4.585029       -0.063730        1.296729
H        2.671339        0.292585       -1.175574
H        4.032180       -0.968161       -1.144947
9
  Step -231: -231.0 fs
C        3.807860        0.254002        0.579890
C        3.554151       -0.162840       -0.598317
C       -0.738403       -0.023155        0.527991
Cl       -1.508421       -1.445651       -0.133160
Cl       -1.460423        1.418118       -0.041768
H        3.158138        0.895372        1.083821
H        4.543322       -0.052049        1.300522
H        2.583558        0.278220       -1.266027
H        4.020037       -0.977606       -1.142578
9
  Step -230: -230.0 fs
C        3.807027        0.246589        0.582608
C        3.545558       -0.154454       -0.594951
C       -0.732035       -0.038931        0.533950
Cl       -1.505039       -1.443070       -0.132854
Cl       -1.459561        1.420866       -0.044000
H        3.149929        0.915442        1.073625
H        4.510062       -0.047523        1.301482
H        2.521348        0.253375       -1.336633
H        4.012894       -0.986009       -1.139297
9
  Step -229: -229.0 fs
C        3.805660        0.240434        0.587674
C        3.534035       -0.146990       -0.596721
C       -0.725252       -0.054787        0.540258
Cl       -1.501721       -1.440524       -0.132602
Cl       -1.458777        1.423678       -0.046297
H        3.133758        0.946917        1.065036
H        4.492594       -0.053502        1.305800
H        2.489355        0.219447       -1.381835
H        4.008881       -0.990272       -1.133232
9
  Step -228: -228.0 fs
C        3.802749        0.236261        0.594754
C        3.519809       -0.140849       -0.603600
C       -0.718146       -0.070412        0.546848
Cl       -1.498480       -1.438052       -0.132418
Cl       -1.458024        1.426487       -0.048622
H        3.116085        0.983003        1.055111
H        4.493816       -0.071149        1.316600
H        2.488767        0.178917       -1.399024
H        4.006799       -0.988758       -1.123505
9
  Step -227: -227.0 fs
C        3.797793        0.234373        0.603494
C        3.503240       -0.136159       -0.614919
C       -0.710794       -0.085521        0.553662
Cl       -1.495328       -1.435693       -0.132312
Cl       -1.457265        1.429233       -0.050944
H        3.103019        1.017017        1.042127
H        4.510221       -0.098561        1.331213
H        2.518887        0.134667       -1.387325
H        4.006434       -0.981697       -1.110350
9
  Step -226: -226.0 fs
C        3.790780        0.234631        0.613457
C        3.484881       -0.132858       -0.629468
C       -0.703266       -0.099862        0.560646
Cl       -1.492278       -1.433484       -0.132295
Cl       -1.456465        1.431865       -0.053234
H        3.098753        1.044062        1.026154
H        4.533936       -0.131487        1.342995
H        2.576187        0.090251       -1.348262
H        4.008545       -0.971018       -1.094881
9
  Step -225: -225.0 fs
C        3.781943        0.236590        0.623973
C        3.465842       -0.130898       -0.645406
C       -0.695621       -0.113214        0.567753
Cl       -1.489340       -1.431457       -0.132378
Cl       -1.455592        1.434343       -0.055467
H        3.105095        1.061671        1.008816
H        4.556541       -0.164980        1.345327
H        2.649948        0.050816       -1.289223
H        4.014492       -0.959643       -1.078662
9
  Step -224: -224.0 fs
C        3.771597        0.239628        0.634131
C        3.448628       -0.130515       -0.659812
C       -0.687915       -0.125393        0.574938
Cl       -1.486521       -1.429644       -0.132567
Cl       -1.454619        1.436632       -0.057619
H        3.121395        1.070065        0.992874
H        4.571562       -0.194694        1.334044
H        2.712621        0.024694       -1.231181
H        4.025356       -0.950270       -1.063219
9
  Step -223: -223.0 fs
C        3.760111        0.243027        0.642917
C        3.437505       -0.132347       -0.668636
C       -0.680202       -0.136248        0.582155
Cl       -1.483827       -1.428067       -0.132866
Cl       -1.453524        1.438704       -0.059670
H        3.144653        1.072277        0.981806
H        4.575290       -0.217529        1.307940
H        2.715989        0.023202       -1.211390
H        4.040882       -0.944171       -1.049742
9
  Step -222: -222.0 fs
C        3.747908        0.246040        0.649412
C        3.434179       -0.136547       -0.670160
C       -0.672538       -0.145662        0.589359
Cl       -1.481258       -1.426746       -0.133279
Cl       -1.452285        1.440539       -0.061603
H        3.170039        1.073779        0.979272
H        4.566934       -0.231959        1.268552
H        2.642050        0.049893       -1.243610
H        4.059327       -0.941182       -1.039151
9
  Step -221: -221.0 fs
C        3.735336        0.248048        0.652888
C        3.434918       -0.142071       -0.666901
C       -0.664980       -0.153551        0.596500
Cl       -1.478812       -1.425693       -0.133804
Cl       -1.450885        1.442118       -0.063402
H        3.192408        1.080747        0.988253
H        4.548788       -0.238338        1.219866
H        2.536439        0.093065       -1.295423
H        4.078187       -0.940495       -1.032229
9
  Step -220: -220.0 fs
C        3.722390        0.248851        0.652802
C        3.436249       -0.147837       -0.661185
C       -0.657593       -0.159862        0.603525
Cl       -1.476484       -1.424912       -0.134437
Cl       -1.449308        1.443429       -0.065053
H        3.208688        1.096641        1.009872
H        4.526365       -0.239164        1.167849
H        2.440953        0.140060       -1.339252
H        4.094634       -0.940885       -1.029476
9
  Step -219: -219.0 fs
C        3.708618        0.248865        0.648901
C        3.436538       -0.153212       -0.654131
C       -0.650445       -0.164569        0.610376
Cl       -1.474262       -1.424402       -0.135169
Cl       -1.447539        1.444461       -0.066543
H        3.219324        1.119440        1.042455
H        4.507657       -0.238708        1.119448
H        2.374615        0.183246       -1.363986
H        4.106047       -0.940944       -1.030943
9
  Step -218: -218.0 fs
C        3.693456        0.248902        0.641384
C        3.435077       -0.157857       -0.646370
C       -0.643611       -0.167673        0.616988
Cl       -1.472134       -1.424155       -0.135989
Cl       -1.445568        1.445206       -0.067861
H        3.227149        1.142586        1.081825
H        4.500187       -0.241177        1.080524
H        2.344166        0.218436       -1.366597
H        4.110460       -0.939407       -1.036213
9
  Step -217: -217.0 fs
C        3.676807        0.249637        0.631003
C        3.431459       -0.161575       -0.638474
C       -0.637169       -0.169194        0.623290
Cl       -1.470083       -1.424157       -0.136882
Cl       -1.443382        1.445658       -0.068998
H        3.235042        1.158598        1.122706
H        4.506429       -0.247846        1.053440
H        2.351305        0.243158       -1.347043
H        4.106805       -0.935441       -1.044548
9
  Step -216: -216.0 fs
C        3.659307        0.251295        0.618981
C        3.425364       -0.164241       -0.631087
C       -0.631202       -0.169171        0.629207
Cl       -1.468089       -1.424392       -0.137833
Cl       -1.440975        1.445813       -0.069945
H        3.244494        1.161949        1.160132
H        4.521951       -0.256009        1.036673
H        2.395285        0.255875       -1.306601
H        4.095013       -0.928842       -1.055088
9
  Step -215: -215.0 fs
C        3.642060        0.253729        0.606730
C        3.416599       -0.165800       -0.624846
C       -0.625792       -0.167659        0.634660
Cl       -1.466131       -1.424836       -0.138822
Cl       -1.438337        1.445667       -0.070692
H        3.255351        1.150170        1.190319
H        4.538591       -0.261084        1.026848
H        2.472633        0.256106       -1.248144
H        4.076024       -0.920139       -1.067010
9
  Step -214: -214.0 fs
C        3.626236        0.256616        0.595563
C        3.405412       -0.166389       -0.620116
C       -0.621020       -0.164723        0.639572
Cl       -1.464189       -1.425466       -0.139829
Cl       -1.435462        1.445218       -0.071235
H        3.266047        1.124004        1.211175
H        4.548784       -0.259284        1.020844
H        2.573738        0.246003       -1.178444
H        4.051693       -0.910558       -1.079635
9
  Step -213: -213.0 fs
C        3.612831        0.259534        0.586479
C        3.393245       -0.166711       -0.616394
C       -0.616963       -0.160437        0.643868
Cl       -1.462240       -1.426257       -0.140835
Cl       -1.432346        1.444467       -0.071567
H        3.273874        1.087340        1.222724
H        4.547762       -0.248850        1.016687
H        2.674563        0.235061       -1.113874
H        4.024494       -0.901827       -1.092496
9
  Step -212: -212.0 fs
C        3.602566        0.261975        0.580029
C        3.383412       -0.168608       -0.611733
C       -0.613691       -0.154880        0.647480
Cl       -1.460263       -1.427181       -0.141820
Cl       -1.428984        1.443413       -0.071684
H        3.275248        1.046962        1.227397
H        4.534002       -0.230199        1.013635
H        2.729553        0.246761       -1.086066
H        3.997034       -0.895838       -1.105405
9
  Step -211: -211.0 fs
C        3.595823        0.263448        0.576362
C        3.378062       -0.173636       -0.604780
C       -0.611263       -0.148136        0.650347
Cl       -1.458241       -1.428212       -0.142765
Cl       -1.425377        1.442061       -0.071583
H        3.266156        1.011425        1.229614
H        4.509264       -0.205738        1.012196
H        2.708378        0.301261       -1.117675
H        3.971761       -0.894473       -1.118534
9
  Step -210: -210.0 fs
C        3.592562        0.263724        0.575418
C        3.374116       -0.180050       -0.598000
C       -0.609728       -0.140294        0.652419
Cl       -1.456153       -1.429326       -0.143655
Cl       -1.421523        1.440413       -0.071265
H        3.243162        0.988215        1.233779
H        4.478691       -0.179558        1.014234
H        2.644475        0.378579       -1.184444
H        3.950673       -0.899248       -1.132302
9
  Step -209: -209.0 fs
C        3.592177        0.263073        0.577023
C        3.368302       -0.185583       -0.594225
C       -0.609122       -0.131444        0.653661
Cl       -1.453987       -1.430497       -0.144475
Cl       -1.417427        1.438478       -0.070730
H        3.205027        0.980123        1.241097
H        4.450310       -0.156844        1.022858
H        2.576772        0.450736       -1.255015
H        3.934178       -0.909974       -1.146638
9
  Step -208: -208.0 fs
C        3.593588        0.262187        0.580963
C        3.359404       -0.189252       -0.594702
C       -0.609465       -0.121679        0.654048
Cl       -1.451728       -1.431704       -0.145213
Cl       -1.413093        1.436265       -0.069982
H        3.153929        0.984002        1.248196
H        4.432732       -0.142520        1.041639
H        2.523229        0.503593       -1.313235
H        3.920874       -0.924394       -1.160468
9
  Step -207: -207.0 fs
C        3.595684        0.261750        0.586990
C        3.347364       -0.190821       -0.599582
C       -0.610763       -0.111095        0.653568
Cl       -1.449366       -1.432924       -0.145859
Cl       -1.408529        1.433784       -0.069028
H        3.094975        0.993253        1.249333
H        4.430629       -0.139040        1.072535
H        2.490245        0.531917       -1.352318
H        3.908486       -0.939194       -1.172037
9
  Step -206: -206.0 fs
C        3.597797        0.262037        0.594822
C        3.332555       -0.190260       -0.608405
C       -0.613005       -0.099797        0.652225
Cl       -1.446895       -1.434138       -0.146406
Cl       -1.403746        1.431054       -0.067875
H        3.034470        1.001267        1.239631
H        4.441264       -0.144942        1.113702
H        2.479848        0.534147       -1.369350
H        3.894919       -0.951279       -1.179677
9
  Step -205: -205.0 fs
C        3.599709        0.262871        0.604092
C        3.315489       -0.187539       -0.620347
C       -0.616165       -0.087896        0.650039
Cl       -1.444309       -1.435328       -0.146849
Cl       -1.398758        1.428093       -0.066537
H        2.978296        1.003369        1.216746
H        4.456291       -0.155910        1.159867
H        2.492263        0.510350       -1.363121
H        3.878901       -0.958624       -1.182421
9
  Step -204: -204.0 fs
C        3.601361        0.263832        0.614246
C        3.296762       -0.182644       -0.634336
C       -0.620196       -0.075516        0.647047
Cl       -1.441605       -1.436477       -0.147183
Cl       -1.393583        1.424927       -0.065030
H        2.930943        0.997341        1.181076
H        4.466592       -0.167151        1.204836
H        2.525958        0.462203       -1.334015
H        3.860226       -0.960629       -1.180239
9
  Step -203: -203.0 fs
C        3.602643        0.264443        0.624510
C        3.277227       -0.175794       -0.649004
C       -0.625032       -0.062789        0.643304
Cl       -1.438785       -1.437572       -0.147409
Cl       -1.388244        1.421589       -0.063373
H        2.894954        0.983379        1.135378
H        4.465519       -0.174983        1.243552
H        2.575360        0.394943       -1.285972
H        3.839704       -0.958119       -1.173978
9
  Step -202: -202.0 fs
C        3.603370        0.264253        0.633942
C        3.258530       -0.167916       -0.662310
C       -0.630590       -0.049866        0.638883
Cl       -1.435850       -1.438598       -0.147526
Cl       -1.382768        1.418116       -0.061589
H        2.870555        0.963943        1.084249
H        4.449782       -0.177321        1.272872
H        2.624609        0.322343       -1.232025
H        3.818891       -0.953030       -1.165144
9
  Step -201: -201.0 fs
C        3.603306        0.262891        0.641514
C        3.243853       -0.161176       -0.670974
C       -0.636762       -0.036911        0.633876
Cl       -1.432806       -1.439545       -0.147538
Cl       -1.377186        1.414553       -0.059709
H        2.855521        0.943416        1.033411
H        4.419446       -0.173744        1.291753
H        2.638957        0.272285       -1.201776
H        3.799610       -0.947817       -1.155621
9
  Step -200: -200.0 fs
C        3.602161        0.260132        0.646237
C        3.236296       -0.157554       -0.672038
C       -0.643424       -0.024109        0.628395
Cl       -1.429657       -1.440405       -0.147451
Cl       -1.371535        1.410956       -0.057766
H        2.845736        0.927218        0.988648
H        4.377917       -0.165568        1.301508
H        2.583931        0.269343       -1.223731
H        3.783585       -0.944937       -1.147447
9
  Step -199: -199.0 fs
C        3.599524        0.256017        0.647308
C        3.234179       -0.155700       -0.666880
C       -0.650431       -0.011668        0.622576
Cl       -1.426412       -1.441168       -0.147270
Cl       -1.365859        1.407389       -0.055799
H        2.836894        0.920153        0.954488
H        4.331820       -0.155904        1.306145
H        2.480790        0.297380       -1.278479
H        3.772163       -0.946487       -1.142589
9
  Step -198: -198.0 fs
C        3.594753        0.250935        0.644174
C        3.234035       -0.153544       -0.658447
C       -0.657619        0.000181        0.616573
Cl       -1.423081       -1.441831       -0.147004
Cl       -1.360203        1.403924       -0.053853
H        2.826840        0.924524        0.933244
H        4.289781       -0.149173        1.311832
H        2.372038        0.329656       -1.331646
H        3.765297       -0.952909       -1.142212
9
  Step -197: -197.0 fs
C        3.587143        0.245530        0.636696
C        3.233979       -0.150377       -0.648580
C       -0.664812        0.011184        0.610557
Cl       -1.419672       -1.442387       -0.146662
Cl       -1.354620        1.400645       -0.051978
H        2.816696        0.939289        0.924943
H        4.259073       -0.149285        1.324219
H        2.282001        0.353016       -1.365690
H        3.761124       -0.962207       -1.145997
9
  Step -196: -196.0 fs
C        3.576368        0.240414        0.625464
C        3.233288       -0.146374       -0.638444
C       -0.671823        0.021074        0.604711
Cl       -1.416196       -1.442834       -0.146253
Cl       -1.349164        1.397641       -0.050226
H        2.809833        0.960881        0.927950
H        4.241505       -0.157144        1.344232
H        2.220816        0.363109       -1.374738
H        3.756844       -0.970787       -1.152262
9
  Step -195: -195.0 fs
C        3.562705        0.235994        0.611888
C        3.231619       -0.142015       -0.629080
C       -0.678460        0.029575        0.599226
Cl       -1.412664       -1.443172       -0.145789
Cl       -1.343891        1.395005       -0.048653
H        2.809886        0.984826        0.939724
H        4.232904       -0.170136        1.366646
H        2.192334        0.359069       -1.357695
H        3.749940       -0.975019       -1.158723
9
  Step -194: -194.0 fs
C        3.546834        0.232533        0.597856
C        3.228649       -0.137806       -0.621566
C       -0.684535        0.036414        0.594290
Cl       -1.409087       -1.443399       -0.145279
Cl       -1.338855        1.392832       -0.047313
H        2.819307        1.007081        0.957418
H        4.226820       -0.184218        1.383388
H        2.197758        0.341367       -1.315360
H        3.738989       -0.972510       -1.163318
9
  Step -193: -193.0 fs
C        3.529560        0.230245        0.585289
C        3.224013       -0.134157       -0.616939
C       -0.689871        0.041339        0.590083
Cl       -1.405475       -1.443518       -0.144735
Cl       -1.334106        1.391208       -0.046256
H        2.838742        1.024809        0.978321
H        4.218103       -0.196071        1.387569
H        2.236361        0.311390       -1.249921
H        3.723997       -0.962795       -1.164781
9
  Step -192: -192.0 fs
C        3.511664        0.229290        0.575786
C        3.217509       -0.131391       -0.615889
C       -0.694317        0.044138        0.586762
Cl       -1.401839       -1.443532       -0.144165
Cl       -1.329687        1.390211       -0.045526
H        2.866920        1.036781        1.000195
H        4.204214       -0.203924        1.375362
H        2.303591        0.272258       -1.166240
H        3.706441       -0.947594       -1.162994
9
  Step -191: -191.0 fs
C        3.493832        0.229688        0.570349
C        3.209716       -0.129911       -0.618207
C       -0.697749        0.044657        0.584454
Cl       -1.398189       -1.443445       -0.143581
Cl       -1.325630        1.389898       -0.045158
H        2.900808        1.043562        1.021551
H        4.185315       -0.207626        1.346370
H        2.384575        0.231569       -1.075661
H        3.689035       -0.930676       -1.159146
9
  Step -190: -190.0 fs
C        3.476573        0.231291        0.569201
C        3.203151       -0.130671       -0.622137
C       -0.700082        0.042818        0.583251
Cl       -1.394535       -1.443265       -0.142993
Cl       -1.321953        1.390303       -0.045174
H        2.936057        1.047447        1.041831
H        4.164224       -0.208646        1.303652
H        2.441538        0.206657       -1.001921
H        3.675038       -0.917039       -1.155541
9
  Step -189: -189.0 fs
C        3.460145        0.233852        0.571816
C        3.201749       -0.135054       -0.625087
C       -0.701277        0.038626        0.583200
Cl       -1.390886       -1.442999       -0.142409
Cl       -1.318663        1.391431       -0.045580
H        2.967891        1.051859        1.061360
H        4.146437       -0.210149        1.253616
H        2.421105        0.221378       -0.973598
H        3.667179       -0.911438       -1.154924
9
  Step -188: -188.0 fs
C        3.444541        0.237175        0.577263
C        3.204522       -0.142216       -0.627054
C       -0.701335        0.032176        0.584310
Cl       -1.387252       -1.442659       -0.141840
Cl       -1.315748        1.393262       -0.046370
H        2.992380        1.060112        1.080896
H        4.139312       -0.216547        1.204852