16
Step 501: 501.0 fs
C        -0.485268       -2.664209        0.536599
C        -0.356452        0.467345       -0.594422
C        -0.533723        1.778849        0.293971
C         0.136054        2.855051        0.418514
C         0.930278       -0.499979       -0.363602
C         0.356790       -1.931632       -0.238564
H        -1.056150       -2.171402        1.249142
H        -0.519636        0.637087       -1.619413
H        -1.500311        1.702529        0.982022
H         1.101023        2.904207       -0.184978
H         1.385405        0.092079        0.517240
H         1.071225       -2.794730       -0.606267
H        -1.267528       -0.231209       -0.521698
H        -1.089360       -3.552186        0.237472
H        -0.202133        3.807300        0.655263
H         1.496795       -0.462770       -1.337601
16
Step 500: 500.0 fs
C        -0.496454       -2.672752        0.517896
C        -0.369598        0.447113       -0.594860
C        -0.523055        1.818201        0.310029
C         0.140569        2.860746        0.417169
C         0.919157       -0.495649       -0.367770
C         0.381012       -1.937430       -0.226516
H        -1.006379       -2.201739        1.297750
H        -0.572068        0.552226       -1.674622
H        -1.530516        1.712787        0.986026
H         1.185063        2.906910       -0.184572
H         1.366566        0.085661        0.562073
H         1.054953       -2.811353       -0.605624
H        -1.259025       -0.202139       -0.572169
H        -1.058081       -3.601181        0.222133
H        -0.253582        3.774993        0.594728
H         1.445368       -0.461504       -1.295629
16
Step 499: 499.0 fs
C        -0.508122       -2.680104        0.498050
C        -0.382665        0.427244       -0.594755
C        -0.517993        1.850319        0.326093
C         0.151363        2.868555        0.413012
C         0.905586       -0.490224       -0.369893
C         0.407196       -1.946212       -0.214035
H        -0.970400       -2.220477        1.360867
H        -0.614588        0.480448       -1.732322
H        -1.541269        1.728134        0.971586
H         1.247678        2.909994       -0.171972
H         1.347910        0.061346        0.589966
H         1.030968       -2.809239       -0.615700
H        -1.252542       -0.171546       -0.606728
H        -1.009991       -3.648761        0.208324
H        -0.316224        3.772518        0.552914
H         1.406341       -0.459068       -1.256878
16
Step 498: 498.0 fs
C        -0.520150       -2.685849        0.478038
C        -0.394773        0.408833       -0.595160
C        -0.519395        1.873347        0.341541
C         0.169278        2.880328        0.406316
C         0.888868       -0.484119       -0.368151
C         0.434265       -1.957718       -0.201118
H        -0.943309       -2.234901        1.426121
H        -0.643216        0.423494       -1.780138
H        -1.532061        1.750410        0.939466
H         1.282517        2.913812       -0.145409
H         1.329176        0.020663        0.598129
H         1.004441       -2.791783       -0.638028
H        -1.261496       -0.149976       -0.621070
H        -0.946638       -3.691392        0.197025
H        -0.385352        3.794738        0.527541
H         1.391344       -0.454158       -1.239246
16
Step 497: 497.0 fs
C        -0.532241       -2.689595        0.458964
C        -0.405346        0.392539       -0.596611
C        -0.526923        1.887055        0.355832
C         0.193450        2.897428        0.397519
C         0.868886       -0.477914       -0.362094
C         0.461026       -1.971322       -0.187654
H        -0.920894       -2.251635        1.479761
H        -0.656015        0.382497       -1.810900
H        -1.506803        1.780118        0.893171
H         1.287955        2.919132       -0.105702
H         1.311178       -0.032617        0.587835
H         0.981951       -2.765603       -0.675193
H        -1.294727       -0.143910       -0.613566
H        -0.870746       -3.727032        0.188912
H        -0.449718        3.825941        0.514911
H         1.404229       -0.446087       -1.248281
16
Step 496: 496.0 fs
C        -0.543839       -2.691196        0.441609
C        -0.414796        0.378347       -0.599308
C        -0.538675        1.892841        0.368273
C         0.221668        2.919557        0.387141
C         0.846427       -0.472322       -0.353216
C         0.486327       -1.986206       -0.173483
H        -0.901262       -2.274444        1.511927
H        -0.652902        0.357747       -1.820606
H        -1.476423        1.816299        0.839893
H         1.267594        2.927059       -0.056068
H         1.296153       -0.092548        0.565244
H         0.969590       -2.738430       -0.730194
H        -1.348908       -0.151724       -0.584518
H        -0.785768       -3.754800        0.184377
H        -0.498049        3.853013        0.511825
H         1.437126       -0.435066       -1.271177
16
Step 495: 495.0 fs
C        -0.554246       -2.690797        0.426376
C        -0.424356        0.365829       -0.603171
C        -0.551274        1.893006        0.377821
C         0.250658        2.945096        0.375968
C         0.822567       -0.468161       -0.343860
C         0.509360       -2.001759       -0.158675
H        -0.884195       -2.304503        1.517554
H        -0.635248        0.348894       -1.807286
H        -1.461463        1.857045        0.790909
H         1.233723        2.938832       -0.003098
H         1.288257       -0.151430        0.541687
H         0.969791       -2.714311       -0.803505
H        -1.410652       -0.166262       -0.536076
H        -0.695459       -3.774428        0.183588
H        -0.522356        3.869015        0.515704
H         1.477192       -0.421841       -1.289762
16
Step 494: 494.0 fs
C        -0.562737       -2.688820        0.413333
C        -0.435303        0.354597       -0.607745
C        -0.561051        1.889757        0.383420
C         0.276276        2.972067        0.365173
C         0.798151       -0.466192       -0.336028
C         0.529826       -2.017831       -0.143864
H        -0.870519       -2.341027        1.495969
H        -0.605717        0.355115       -1.771574
H        -1.484720        1.901420        0.756759
H         1.211618        2.955238        0.042567
H         1.292652       -0.201746        0.530546
H         0.979778       -2.690790       -0.889441
H        -1.465333       -0.180259       -0.472455
H        -0.603646       -3.785736        0.186551
H        -0.518131        3.871741        0.524412
H         1.513504       -0.407295       -1.291584
16
Step 493: 493.0 fs
C        -0.568612       -2.685924        0.402200
C        -0.448452        0.344490       -0.612070
C        -0.566425        1.884669        0.384878
C         0.294528        2.998770        0.355906
C         0.773975       -0.466852       -0.330588
C         0.547768       -2.034458       -0.130197
H        -0.862033       -2.381502        1.451178
H        -0.568302        0.375221       -1.718850
H        -1.548296        1.950257        0.737477
H         1.232206        2.975978        0.070494
H         1.311401       -0.239285        0.538995
H         0.993997       -2.662385       -0.976806
H        -1.502391       -0.188809       -0.399389
H        -0.514138       -3.788526        0.193085
H        -0.484246        3.862360        0.536351
H         1.538736       -0.392287       -1.271248
16
Step 492: 492.0 fs
C        -0.571175       -2.682954        0.392245
C        -0.464078        0.335509       -0.614522
C        -0.568435        1.878913        0.382834
C         0.304348        3.023756        0.348340
C         0.751137       -0.470189       -0.327016
C         0.563297       -2.051456       -0.118912
H        -0.861886       -2.421652        1.393159
H        -0.528103        0.408027       -1.662103
H        -1.628983        2.002872        0.723814
H         1.301413        3.000277        0.080607
H         1.339653       -0.264051        0.562628
H         1.007516       -2.625599       -1.053492
H        -1.516079       -0.189297       -0.323263
H        -0.430670       -3.782942        0.202725
H        -0.423948        3.845706        0.550928
H         1.548629       -0.377586       -1.228448
16
Step 491: 491.0 fs
C        -0.569702       -2.680814        0.382213
C        -0.482050        0.327679       -0.612917
C        -0.568700        1.873519        0.377942
C         0.308372        3.045421        0.341643
C         0.730839       -0.476054       -0.323999
C         0.576479       -2.068303       -0.110993
H        -0.874984       -2.455785        1.338463
H        -0.490114        0.453164       -1.621505
H        -1.701212        2.056067        0.707505
H         1.391624        3.027757        0.082316
H         1.367929       -0.278020        0.590773
H         1.017400       -2.580476       -1.110095
H        -1.504798       -0.180817       -0.250400
H        -0.356696       -3.770115        0.214661
H        -0.346830        3.832237        0.569472
H         1.541695       -0.363797       -1.166522
16
Step 490: 490.0 fs
C        -0.563558       -2.680260        0.370760
C        -0.501974        0.321033       -0.605561
C        -0.568252        1.869382        0.370599
C         0.310209        3.061792        0.334790
C         0.713863       -0.484260       -0.320138
C         0.587346       -2.084226       -0.107061
H        -0.906976       -2.478636        1.304938
H        -0.457466        0.510985       -1.612692
H        -1.749203        2.106146        0.684633
H         1.472510        3.057722        0.083825
H         1.387248       -0.283251        0.614350
H         1.022604       -2.529781       -1.140978
H        -1.471035       -0.164053       -0.186178
H        -0.295029       -3.752672        0.227769
H        -0.268851        3.839103        0.596246
H         1.519833       -0.351180       -1.092203
16
Step 489: 489.0 fs
C        -0.552601       -2.681611        0.357588
C        -0.523033        0.315914       -0.592732
C        -0.567551        1.867244        0.361058
C         0.312363        3.071183        0.326983
C         0.700229       -0.494613       -0.314137
C         0.595951       -2.098320       -0.107372
H        -0.959954       -2.488433        1.298059
H        -0.432207        0.579214       -1.630638
H        -1.765690        2.150050        0.654245
H         1.526313        3.088683        0.088955
H         1.391592       -0.281492        0.628603
H         1.023639       -2.477932       -1.144331
H        -1.422273       -0.141751       -0.133620
H        -0.247521       -3.734876        0.240773
H        -0.203825        3.881957        0.636720
H         1.489753       -0.339256       -1.016165
16
Step 488: 488.0 fs
C        -0.537538       -2.684739        0.343943
C        -0.543712        0.313209       -0.576333
C        -0.566738        1.867657        0.349520
C         0.315326        3.073748        0.318138
C         0.689126       -0.506926       -0.304782
C         0.602382       -2.109636       -0.111813
H        -1.028420       -2.487548        1.305013
H        -0.417405        0.650885       -1.655306
H        -1.748694        2.185490        0.616894
H         1.545688        3.118467        0.098565
H         1.377981       -0.274248        0.632604
H         1.022559       -2.430383       -1.122500
H        -1.372161       -0.119447       -0.091564
H        -0.214971       -3.722113        0.252514
H        -0.150733        3.956697        0.690445
H         1.463564       -0.326295       -0.952656
16
Step 487: 487.0 fs
C        -0.519659       -2.689360        0.331565
C        -0.562007        0.314074       -0.558501
C        -0.565731        1.870949        0.336150
C         0.318394        3.071397        0.308976
C         0.679359       -0.520988       -0.291237
C         0.606685       -2.117251       -0.119817
H        -1.101899       -2.479783        1.306955
H        -0.416374        0.717523       -1.668798
H        -1.700114        2.211041        0.574026
H         1.529648        3.144529        0.111906
H         1.345961       -0.262810        0.628293
H         1.023412       -2.393337       -1.083084
H        -1.339145       -0.105116       -0.053936
H        -0.197363       -3.719622        0.262181
H        -0.099527        4.040408        0.748751
H         1.454308       -0.309696       -0.914909
16
Step 486: 486.0 fs
C        -0.500287       -2.695325        0.321724
C        -0.576297        0.319384       -0.540767
C        -0.564141        1.877189        0.321043
C         0.320901        3.066119        0.300394
C         0.670305       -0.536389       -0.273710
C         0.608734       -2.120352       -0.130253
H        -1.170129       -2.468257        1.290342
H        -0.431182        0.772262       -1.661361
H        -1.626586        2.226664        0.528045
H         1.481941        3.164366        0.127246
H         1.297461       -0.248112        0.620001
H         1.032910       -2.373456       -1.039933
H        -1.338175       -0.105290       -0.013789
H        -0.194316       -3.730661        0.269385
H        -0.044298        4.110823        0.801700
H         1.465424       -0.288541       -0.906593
16
Step 485: 485.0 fs
C        -0.480507       -2.702731        0.315051
C        -0.586355        0.329184       -0.523513
C        -0.560999        1.886101        0.304181
C         0.322276        3.059203        0.293094
C         0.662230       -0.552417       -0.253620
C         0.608228       -2.118352       -0.141660
H        -1.225464       -2.455052        1.248721
H        -0.462276        0.810603       -1.629875
H        -1.542626        2.235024        0.482787
H         1.412251        3.176020        0.141942
H         1.237005       -0.230391        0.614384
H         1.059652       -2.376752       -1.010021
H        -1.369511       -0.119071        0.028459
H        -0.205396       -3.754963        0.274031
H         0.014807        4.154800        0.842523
H         1.487267       -0.265666       -0.919586
16
Step 484: 484.0 fs
C        -0.461124       -2.711898        0.311700
C        -0.593212        0.342723       -0.506086
C        -0.554501        1.896933        0.285413
C         0.321547        3.051306        0.287595
C         0.655542       -0.568247       -0.232935
C         0.605090       -2.111142       -0.153193
H        -1.263138       -2.441452        1.180902
H        -0.508668        0.830323       -1.576084
H        -1.473771        2.243112        0.443795
H         1.339297        3.178791        0.152237
H         1.171363       -0.208913        0.619856
H         1.109020       -2.405721       -1.001953
H        -1.420071       -0.138378        0.064464
H        -0.229926       -3.788523        0.276149
H         0.074450        4.166734        0.867660
H         1.506338       -0.245784       -0.941296
16
Step 483: 483.0 fs
C        -0.442693       -2.723240        0.311456
C        -0.598182        0.358936       -0.487462
C        -0.542668        1.908613        0.264611
C         0.317166        3.042669        0.284301
C         0.650335       -0.583107       -0.213413
C         0.599970       -2.099373       -0.165366
H        -1.281325       -2.428049        1.089552
H        -0.568230        0.831688       -1.506574
H        -1.449131        2.260230        0.416687
H         1.291201        3.173743        0.153371
H         1.107351       -0.182677        0.643899
H         1.176853       -2.456232       -1.007003
H        -1.474548       -0.153940        0.085657
H        -0.266455       -3.824994        0.275804
H         0.130125        4.145733        0.875812
H         1.513026       -0.232731       -0.960897
16
Step 482: 482.0 fs
C        -0.425434       -2.737079        0.313741
C        -0.602290        0.376691       -0.466503
C        -0.525603        1.920533        0.242041
C         0.308186        3.033434        0.283388
C         0.646598       -0.596142       -0.196060
C         0.594006       -2.084422       -0.179292
H        -1.281832       -2.414491        0.980830
H        -0.638228        0.818192       -1.434170
H        -1.475241        2.288099        0.402780
H         1.291129        3.162037        0.141384
H         1.048507       -0.152747        0.688065
H         1.251544       -2.518615       -1.008067
H        -1.521591       -0.158925        0.087803
H        -0.312413       -3.857869        0.273106
H         0.176981        4.094253        0.867495
H         1.502697       -0.228561       -0.970877
16
Step 481: 481.0 fs
C        -0.409065       -2.753540        0.317583
C        -0.606135        0.394845       -0.441953
C        -0.506137        1.932757        0.218419
C         0.296208        3.023963        0.284522
C         0.644367       -0.606262       -0.180959
C         0.588162       -2.068071       -0.195608
H        -1.271416       -2.398844        0.864211
H        -0.716535        0.796467       -1.377801
H        -1.528861        2.317628        0.398165
H         1.334141        3.141676        0.116301
H         0.994574       -0.123884        0.745880
H         1.321360       -2.581952       -0.992300
H        -1.554311       -0.149398        0.071132
H        -0.364262       -3.882277        0.268293
H         0.210231        4.018531        0.845401
H         1.474539       -0.233690       -0.966773
16
Step 480: 480.0 fs
C        -0.392794       -2.772526        0.321771
C        -0.609903        0.412566       -0.413016
C        -0.487583        1.945117        0.194479
C         0.284681        3.014467        0.286769
C         0.643553       -0.612320       -0.167584
C         0.582943       -2.052207       -0.214251
H        -1.261852       -2.377149        0.750667
H        -0.802456        0.772443       -1.354242
H        -1.582930        2.339224        0.397934
H         1.394400        3.109378        0.082176
H         0.944291       -0.102782        0.806812
H         1.378174       -2.636955       -0.954193
H        -1.569542       -0.123997        0.039438
H        -0.418006       -3.895999        0.261761
H         0.225788        3.931268        0.815849
H         1.430899       -0.246979       -0.947073
16
Step 479: 479.0 fs
C        -0.375835       -2.793609        0.325298
C        -0.613599        0.429829       -0.380534
C        -0.472422        1.956859        0.170711
C         0.276744        3.004241        0.288672
C         0.643710       -0.613498       -0.155145
C         0.578506       -2.038592       -0.234678
H        -1.264522       -2.345271        0.647941
H        -0.893928        0.745799       -1.363329
H        -1.620689        2.348112        0.398560
H         1.448661        3.064502        0.044250
H         0.897578       -0.095109        0.861397
H         1.417657       -2.676694       -0.893659
H        -1.567892       -0.083924       -0.000517
H        -0.469777       -3.899821        0.254000
H         0.221102        3.855604        0.791110
H         1.377633       -0.265375       -0.913897
16
Step 478: 478.0 fs
C        -0.358279       -2.815731        0.327713
C        -0.617234        0.447204       -0.346889
C        -0.462339        1.966882        0.147369
C         0.274536        2.991857        0.288559
C         0.643903       -0.609607       -0.142634
C         0.574828       -2.028651       -0.256098
H        -1.280769       -2.303727        0.557221
H        -0.984106        0.712374       -1.388508
H        -1.634336        2.343265        0.397871
H         1.483224        3.009288        0.007287
H         0.855666       -0.104061        0.903428
H         1.438617       -2.696574       -0.814062
H        -1.554698       -0.033181       -0.039705
H        -0.516417       -3.897351        0.245455
H         0.195437        3.820921        0.787359
H         1.325191       -0.283184       -0.874495
16
Step 477: 477.0 fs
C        -0.341150       -2.837225        0.328873
C        -0.620506        0.465262       -0.314602
C        -0.458484        1.974053        0.124564
C         0.279365        2.977338        0.285803
C         0.642732       -0.601159       -0.128807
C         0.571775       -2.023284       -0.277591
H        -1.301169       -2.259312        0.476559
H        -1.064094        0.670406       -1.412294
H        -1.621435        2.325655        0.394515
H         1.491356        2.947411       -0.024817
H         0.820460       -0.130309        0.930087
H         1.442800       -2.694537       -0.721139
H        -1.540843        0.021449       -0.068182
H        -0.555867       -3.894037        0.236418
H         0.150111        3.837095        0.809764
H         1.288429       -0.292134       -0.841670
16
Step 476: 476.0 fs
C        -0.325628       -2.856392        0.328573
C        -0.622672        0.484275       -0.285490
C        -0.461501        1.977544        0.102363
C         0.291624        2.963137        0.281474
C         0.638849       -0.589086       -0.112696
C         0.569045       -2.022713       -0.298168
H        -1.314663       -2.220835        0.405303
H        -1.126905        0.621420       -1.424225
H        -1.583263        2.297416        0.387726
H         1.471024        2.883011       -0.049104
H         0.794028       -0.172337        0.941927
H         1.435554       -2.671829       -0.622448
H        -1.540517        0.072048       -0.077338
H        -0.587159       -3.895200        0.227122
H         0.090627        3.881359        0.844156
H         1.280734       -0.284548       -0.827862
16
Step 475: 475.0 fs
C        -0.312598       -2.872059        0.326495
C        -0.623209        0.503976       -0.260559
C        -0.471203        1.977226        0.080881
C         0.310613        2.951561        0.276927
C         0.631880       -0.574200       -0.094695
C         0.566070       -2.026393       -0.316834
H        -1.314441       -2.195212        0.344478
H        -1.168428        0.568282       -1.419796
H        -1.525535        2.261959        0.377646
H         1.424822        2.820331       -0.063765
H         0.778355       -0.226682        0.943511
H         1.427085       -2.634014       -0.526526
H        -1.562883        0.113666       -0.062394
H        -0.609767       -3.903767        0.217983
H         0.026055        3.925175        0.872947
H         1.303282       -0.259059       -0.833083
16
Step 474: 474.0 fs
C        -0.302656       -2.883766        0.322296
C        -0.622569        0.523392       -0.240163
C        -0.486135        1.973784        0.060243
C         0.334475        2.943251        0.272945
C         0.622504       -0.557026       -0.076697
C         0.562013       -2.033126       -0.332767
H        -1.298318       -2.186505        0.295616
H        -1.186787        0.513864       -1.397641
H        -1.461419        2.224768        0.366440
H         1.362120        2.763154       -0.068957
H         0.775302       -0.288408        0.943953
H         1.432225       -2.590418       -0.440846
H        -1.603917        0.147247       -0.023249
H        -0.622847       -3.919210        0.209808
H        -0.034411        3.951154        0.885488
H         1.344255       -0.221137       -0.843896
16
Step 473: 473.0 fs
C        -0.296191       -2.891670        0.315675
C        -0.621951        0.541120       -0.224241
C        -0.503380        1.968387        0.040419
C         0.360111        2.937680        0.269964
C         0.611600       -0.538007       -0.060911
C         0.556277       -2.041591       -0.345557
H        -1.267620       -2.196241        0.260005
H        -1.181698        0.460587       -1.357851
H        -1.414685        2.194123        0.359981
H         1.302425        2.713135       -0.068461
H         0.786404       -0.352533        0.954806
H         1.463967       -2.549091       -0.369044
H        -1.649724        0.177152        0.036853
H        -0.625056       -3.938350        0.203737
H        -0.083112        3.951650        0.877246
H         1.389191       -0.177951       -0.845437
16
Step 472: 472.0 fs
C        -0.293320       -2.896359        0.306445
C        -0.622501        0.555744       -0.212461
C        -0.519441        1.962361        0.021199
C         0.383570        2.934094        0.268422
C         0.599816       -0.517506       -0.048653
C         0.549368       -2.051005       -0.355196
H        -1.226811       -2.223414        0.238383
H        -1.154406        0.410413       -1.301831
H        -1.412396        2.178992        0.366654
H         1.274010        2.667710       -0.070260
H         0.811938       -0.416144        0.982857
H         1.522396       -2.510568       -0.311146
H        -1.686013        0.207095        0.113108
H        -0.615005       -3.957179        0.200921
H        -0.114123        3.924808        0.847365
H         1.427379       -0.135103       -0.828557
16
Step 471: 471.0 fs
C        -0.293742       -2.898746        0.294575
C        -0.624886        0.566088       -0.204186
C        -0.532702        1.957315        0.002846
C         0.401868        2.931760        0.268454
C         0.587720       -0.495818       -0.039760
C         0.542895       -2.061013       -0.361791
H        -1.184190       -2.263780        0.230734
H        -1.108318        0.364693       -1.233543
H        -1.459419        2.182513        0.388251
H         1.296143        2.622696       -0.080734
H         0.849404       -0.478315        1.023311
H         1.593870       -2.469989       -0.266970
H        -1.702898        0.238600        0.200176
H        -0.591834       -3.972424        0.202211
H        -0.123546        3.872932        0.797562
H         1.452343       -0.096234       -0.789894
16
Step 470: 470.0 fs
C        -0.296569       -2.900037        0.280209
C        -0.629207        0.571391       -0.198272
C        -0.544089        1.955062       -0.013598
C         0.414923        2.929285        0.269188
C         0.575952       -0.473364       -0.033005
C         0.538608       -2.071168       -0.365443
H        -1.152988       -2.308964        0.236154
H        -1.050219        0.323415       -1.162077
H        -1.532179        2.200336        0.415270
H         1.358831        2.580385       -0.096227
H         0.893399       -0.537596        1.063155
H         1.661632       -2.423760       -0.237285
H        -1.695084        0.271324        0.292577
H        -0.555540       -3.982400        0.208006
H        -0.110775        3.803467        0.732508
H         1.460912       -0.063415       -0.730234
16
Step 469: 469.0 fs
C        -0.300438       -2.901542        0.263607
C        -0.635027        0.571544       -0.192828
C        -0.554938        1.956999       -0.027111
C         0.424685        2.924360        0.268978
C         0.565122       -0.450782       -0.026929
C         0.537752       -2.080770       -0.366297
H        -1.149610       -2.347911        0.253229
H        -0.991067        0.283756       -1.104289
H        -1.604131        2.226638        0.436177
H         1.435756        2.548403       -0.107388
H         0.937426       -0.591002        1.090120
H         1.713087       -2.371778       -0.222834
H        -1.660792        0.303789        0.384818
H        -0.507002       -3.987294        0.218260
H        -0.081231        3.732581        0.661347
H         1.453018       -0.037254       -0.653521
16
Step 468: 468.0 fs
C        -0.304327       -2.904063        0.245039
C        -0.641608        0.567191       -0.185551
C        -0.565894        1.963740       -0.037206
C         0.433594        2.914021        0.266026
C         0.555597       -0.428875       -0.020246
C         0.540950       -2.088981       -0.364565
H        -1.183888       -2.373845        0.280854
H        -0.943300        0.239900       -1.081076
H        -1.658867        2.257417        0.443617
H         1.505134        2.532609       -0.107381
H         0.975617       -0.635020        1.097238
H         1.740867       -2.316379       -0.223676
H        -1.601267        0.333946        0.471763
H        -0.447789       -3.989040        0.232560
H        -0.049088        3.688534        0.598251
H         1.432439       -0.016579       -0.566627
16
Step 467: 467.0 fs
C        -0.308503       -2.907371        0.224804
C        -0.648471        0.559245       -0.175259
C        -0.577093        1.975147       -0.043862
C         0.443604        2.895790        0.259128
C         0.547304       -0.408561       -0.011878
C         0.548292       -2.094963       -0.360515
H        -1.248121       -2.390762        0.317617
H        -0.913540        0.188514       -1.100345
H        -1.688507        2.290184        0.434160
H         1.554399        2.534882       -0.093537
H         1.003421       -0.666721        1.082934
H         1.742016       -2.261094       -0.239105
H        -1.521079        0.359404        0.549570
H        -0.379834       -3.990570        0.250279
H        -0.029973        3.700119        0.555133
H         1.408020        0.002195       -0.479250
16
Step 466: 466.0 fs
C        -0.314106       -2.910703        0.203326
C        -0.655487        0.548282       -0.162903
C        -0.588471        1.990500       -0.047344
C         0.454710        2.870352        0.248631
C         0.539714       -0.390794       -0.001048
C         0.559380       -2.097988       -0.354433
H        -1.322525       -2.408562        0.360155
H        -0.900499        0.134464       -1.146657
H        -1.690307        2.323179        0.406889
H         1.578055        2.553766       -0.066160
H         1.017731       -0.684344        1.050060
H         1.717850       -2.209953       -0.267682