11
Step 501: 501.0 fs
Os       -1.142577        0.018666        0.150595
O        -0.909955       -1.239558        1.254792
O        -2.665956        0.738866        0.270157
O        -0.892473       -0.577272       -1.442023
O         0.053419        1.134203        0.573509
C         9.309720        0.461701       -1.158102
C         9.197530       -0.771931       -1.636553
H         9.056215        1.359743       -1.761909
H         9.662222        0.382102       -0.037745
H         9.394805       -1.542810       -0.903972
H         8.766137       -0.957234       -2.814512
11
Step 500: 500.0 fs
Os       -1.140232        0.018583        0.150308
O        -0.900736       -1.240185        1.254040
O        -2.672713        0.742808        0.268183
O        -0.897556       -0.575203       -1.441663
O         0.051312        1.129271        0.574375
C         9.300464        0.453981       -1.153987
C         9.187767       -0.768715       -1.636282
H         9.046314        1.430482       -1.798799
H         9.625273        0.398386       -0.077991
H         9.348281       -1.570414       -0.879885
H         8.719063       -0.954503       -2.735858
11
Step 499: 499.0 fs
Os       -1.137859        0.018469        0.149984
O        -0.892003       -1.240652        1.252965
O        -2.678941        0.746380        0.266260
O        -0.902795       -0.572662       -1.440244
O         0.048998        1.124451        0.574893
C         9.291109        0.447760       -1.150038
C         9.176586       -0.766311       -1.637875
H         9.043749        1.480713       -1.817846
H         9.586033        0.426815       -0.127253
H         9.301246       -1.598370       -0.866467
H         8.685522       -0.951234       -2.631198
11
Step 498: 498.0 fs
Os       -1.135496        0.018323        0.149629
O        -0.883772       -1.240949        1.251550
O        -2.684388        0.749460        0.264389
O        -0.908147       -0.569684       -1.437855
O         0.046630        1.119890        0.575100
C         9.281199        0.444037       -1.147986
C         9.164263       -0.765304       -1.639596
H         9.049179        1.502383       -1.815656
H         9.550865        0.466065       -0.166561
H         9.254161       -1.619880       -0.867380
H         8.660167       -0.949775       -2.519285
11
Step 497: 497.0 fs
Os       -1.133177        0.018145        0.149251
O        -0.876058       -1.241085        1.249794
O        -2.688837        0.751949        0.262573
O        -0.913564       -0.566319       -1.434622
O         0.044368        1.115747        0.575032
C         9.270377        0.443161       -1.149438
C         9.151809       -0.765636       -1.638758
H         9.061709        1.492892       -1.792614
H         9.526048        0.515156       -0.176122
H         9.208399       -1.631140       -0.883082
H         8.628460       -0.955199       -2.431915
11
Step 496: 496.0 fs
Os       -1.130933        0.017937        0.148857
O        -0.868872       -1.241077        1.247706
O        -2.692117        0.753766        0.260817
O        -0.918997       -0.562626       -1.430706
O         0.042369        1.112173        0.574727
C         9.258715        0.445105       -1.154537
C         9.140546       -0.766863       -1.632975
H         9.079391        1.453804       -1.752086
H         9.513361        0.572725       -0.151654
H         9.165887       -1.631717       -0.910760
H         8.572040       -0.973121       -2.399547
11
Step 495: 495.0 fs
Os       -1.128791        0.017699        0.148460
O        -0.862220       -1.240956        1.245303
O        -2.694097        0.754852        0.259131
O        -0.924395       -0.558677       -1.426297
O         0.040786        1.109314        0.574224
C         9.246803        0.449604       -1.161422
C         9.130160       -0.768904       -1.622962
H         9.099148        1.392651       -1.701385
H         9.509222        0.634688       -0.108995
H         9.128709       -1.624954       -0.944357
H         8.492188       -1.001425       -2.418731
11
Step 494: 494.0 fs
Os       -1.126775        0.017434        0.148070
O        -0.856105       -1.240761        1.242613
O        -2.694690        0.755165        0.257524
O        -0.929703       -0.554554       -1.421613
O         0.039751        1.107298        0.573554
C         9.235423        0.455582       -1.167351
C         9.118765       -0.771901       -1.611701
H         9.116431        1.328015       -1.654133
H         9.508799        0.694821       -0.068407
H         9.098490       -1.617944       -0.975429
H         8.409824       -1.030902       -2.461151
11
Step 493: 493.0 fs
Os       -1.124901        0.017146        0.147703
O        -0.850526       -1.240540        1.239672
O        -2.693849        0.754686        0.256011
O        -0.934872       -0.550346       -1.416890
O         0.039375        1.106229        0.572745
C         9.225293        0.460530       -1.169607
C         9.104832       -0.775507       -1.601670
H         9.125546        1.292760       -1.631150
H         9.508720        0.747428       -0.043390
H         9.075893       -1.619752       -0.995359
H         8.343002       -1.053887       -2.503961
11
Step 492: 492.0 fs
Os       -1.123182        0.016843        0.147372
O        -0.845481       -1.240348        1.236522
O        -2.691573        0.753411        0.254606
O        -0.939849       -0.546146       -1.412375
O         0.039739        1.106183        0.571815
C         9.216788        0.462214       -1.166491
C         9.087670       -0.779187       -1.594123
H         9.122962        1.313311       -1.648638
H         9.507221        0.788537       -0.040177
H         9.060783       -1.636514       -0.999045
H         8.300894       -1.066496       -2.535150
11
Step 491: 491.0 fs
Os       -1.121621        0.016531        0.147091
O        -0.840964       -1.240245        1.233212
O        -2.687900        0.751359        0.253330
O        -0.944590       -0.542045       -1.408313
O         0.040885        1.107199        0.570770
C         9.209715        0.461827       -1.158702
C         9.067103       -0.782906       -1.589278
H         9.110660        1.374293       -1.698866
H         9.503704        0.815779       -0.059930
H         9.052797       -1.666544       -0.987655
H         8.286904       -1.067274       -2.549150
11
Step 490: 490.0 fs
Os       -1.120218        0.016221        0.146874
O        -0.836965       -1.240292        1.229796
O        -2.682908        0.748564        0.252203
O        -0.949052       -0.538130       -1.404940
O         0.042819        1.109281        0.569607
C         9.203602        0.462117       -1.148354
C         9.043246       -0.787102       -1.586674
H         9.092815        1.440187       -1.761139
H         9.498573        0.828480       -0.099726
H         9.051431       -1.701229       -0.967257
H         8.301190       -1.056150       -2.543872
11
Step 489: 489.0 fs
Os       -1.118963        0.015922        0.146734
O        -0.833476       -1.240550        1.226325
O        -2.676717        0.745078        0.251250
O        -0.953197       -0.534482       -1.402464
O         0.045507        1.112393        0.568311
C         9.197929        0.464507       -1.137593
C         9.016511       -0.792100       -1.585476
H         9.072541        1.487247       -1.819628
H         9.493586        0.828394       -0.151678
H         9.055711       -1.730516       -0.944956
H         8.341133       -1.034263       -2.520299
11
Step 488: 488.0 fs
Os       -1.117840        0.015646        0.146682
O        -0.830486       -1.241079        1.222852
O        -2.669486        0.740973        0.250496
O        -0.957000       -0.531167       -1.401063
O         0.048879        1.116461        0.566856
C         9.192069        0.468871       -1.128601
C         8.987738       -0.797717       -1.584485
H         9.051777        1.505093       -1.865369
H         9.492574        0.820599       -0.201191
H         9.064087       -1.746944       -0.926402
H         8.400006       -1.004443       -2.484633
11
Step 487: 487.0 fs
Os       -1.116827        0.015402        0.146723
O        -0.827983       -1.241929        1.219426
O        -2.661409        0.736336        0.249970
O        -0.960440       -0.528238       -1.400863
O         0.052832        1.121383        0.565212
C         9.185250        0.474206       -1.123644
C         8.958353       -0.803212       -1.581831
H         9.031845        1.490634       -1.893530
H         9.501305        0.812780       -0.228815
H         9.074600       -1.746737       -0.915217
H         8.464854       -0.971937       -2.452839
11
Step 486: 486.0 fs
Os       -1.115895        0.015198        0.146861
O        -0.825955       -1.243140        1.216094
O        -2.652716        0.731271        0.249704
O        -0.963508       -0.525723       -1.401936
O         0.057236        1.127029        0.563342
C         9.176864        0.479489       -1.124157
C         8.930174       -0.807525       -1.574922
H         9.013730        1.444630       -1.901817
H         9.523874        0.810383       -0.221946
H         9.085209       -1.729675       -0.912985
H         8.518269       -0.943631       -2.451967
11
Step 485: 485.0 fs
Os       -1.115010        0.015041        0.147093
O        -0.824392       -1.244746        1.212895
O        -2.643670        0.725897        0.249731
O        -0.966201       -0.523632       -1.404290
O         0.061942        1.133251        0.561206
C         9.166941        0.484262       -1.129601
C         8.904234       -0.809788       -1.562209
H         8.998023        1.371287       -1.890609
H         9.557433        0.811652       -0.187486
H         9.094315       -1.699148       -0.918841
H         8.551407       -0.923435       -2.500510
11
Step 484: 484.0 fs
Os       -1.114136        0.014934        0.147413
O        -0.823283       -1.246773        1.209862
O        -2.634557        0.720344        0.250085
O        -0.968522       -0.521952       -1.407875
O         0.066792        1.139890        0.558764
C         9.156108        0.488198       -1.137857
C         8.880041       -0.809523       -1.545458
H         8.984394        1.280439       -1.864978
H         9.593536        0.810838       -0.144976
H         9.101443       -1.662649       -0.928775
H         8.571947       -0.909781       -2.582048
11
Step 483: 483.0 fs
Os       -1.113234        0.014878        0.147810
O        -0.822619       -1.249232        1.207018
O        -2.625681        0.714750        0.250802
O        -0.970481       -0.520649       -1.412580
O         0.071622        1.146781        0.555977
C         9.145196        0.490189       -1.146149
C         8.856746       -0.806214       -1.528052
H         8.970357        1.191774       -1.839071
H         9.623837        0.803815       -0.112065
H         9.107683       -1.631144       -0.936095
H         8.589830       -0.900182       -2.664232
11
Step 482: 482.0 fs
Os       -1.112263        0.014868        0.148269
O        -0.822389       -1.252116        1.204379
O        -2.617351        0.709257        0.251917
O        -0.972096       -0.519673       -1.418245
O         0.076272        1.153763        0.552814
C         9.135088        0.488197       -1.151355
C         8.833908       -0.799414       -1.512567
H         8.950331        1.134749       -1.838062
H         9.642757        0.789363       -0.099425
H         9.114981       -1.615066       -0.934381
H         8.609011       -0.893513       -2.724164
11
Step 481: 481.0 fs
Os       -1.111185        0.014901        0.148772
O        -0.822585       -1.255406        1.201950
O        -2.609867        0.704003        0.253462
O        -0.973388       -0.518962       -1.424672
O         0.080595        1.160678        0.549248
C         9.126365        0.481153       -1.151512
C         8.811495       -0.789419       -1.500208
H         8.920050        1.127804       -1.879354
H         9.647553        0.768185       -0.111400
H         9.123854       -1.617716       -0.922060
H         8.629436       -0.889354       -2.750683
11
Step 480: 480.0 fs
Os       -1.109962        0.014968        0.149299
O        -0.823197       -1.259073        1.199725
O        -2.603506        0.699115        0.255466
O        -0.974385       -0.518442       -1.431630
O         0.084454        1.167383        0.545261
C         9.118734        0.470879       -1.147857
C         8.789784       -0.777546       -1.491125
H         8.884052        1.156838       -1.947054
H         9.638095        0.742107       -0.146825
H         9.131816       -1.633055       -0.903570
H         8.649399       -0.887488       -2.739898
11
Step 479: 479.0 fs
Os       -1.108565        0.015062        0.149830
O        -0.824215       -1.263074        1.197690
O        -2.598501        0.694699        0.257955
O        -0.975110       -0.518036       -1.438876
O         0.087730        1.173747        0.540840
C         9.111406        0.460163       -1.143108
C         8.769161       -0.765619       -1.484969
H         8.850844        1.196889       -2.012432
H         9.617226        0.714163       -0.198769
H         9.134687       -1.650732       -0.885561
H         8.666508       -0.887829       -2.692599
11
Step 478: 478.0 fs
Os       -1.106969        0.015173        0.150345
O        -0.825629       -1.267357        1.195818
O        -2.595030        0.690840        0.260948
O        -0.975589       -0.517663       -1.446159
O         0.090325        1.179659        0.535980
C         9.103543        0.450895       -1.139679
C         8.749951       -0.755305       -1.481145
H         8.826203        1.231754       -2.056895
H         9.591775        0.689177       -0.253179
H         9.128830       -1.661799       -0.873087
H         8.677901       -0.890574       -2.614743
11
Step 477: 477.0 fs
Os       -1.105158        0.015294        0.150825
O        -0.827426       -1.271854        1.194079
O        -2.593197        0.687589        0.264457
O        -0.975847       -0.517246       -1.453238
O         0.092164        1.185027        0.530683
C         9.094249        0.443992       -1.139638
C         8.732375       -0.747764       -1.478530
H         8.812800        1.253642       -2.072378
H         9.572454        0.673566       -0.289688
H         9.112204       -1.660952       -0.868440
H         8.680272       -0.896776       -2.521203
11
Step 476: 476.0 fs
Os       -1.103125        0.015417        0.151253
O        -0.829592       -1.276496        1.192435
O        -2.593024        0.684960        0.268487
O        -0.975906       -0.516712       -1.459883
O         0.093196        1.189778        0.524963
C         9.082900        0.439933       -1.144272
C         8.716567       -0.743480       -1.474958
H         8.811418        1.259329       -2.056907
H         9.568277        0.672296       -0.291893
H         9.084492       -1.646703       -0.871302
H         8.669985       -0.909601       -2.441135
11
Step 475: 475.0 fs
Os       -1.100872        0.015535        0.151612
O        -0.832111       -1.281209        1.190844
O        -2.594454        0.682933        0.273030
O        -0.975787       -0.515997       -1.465887
O         0.093395        1.193862        0.518837
C         9.069831        0.439297       -1.153028
C         8.702541       -0.742270       -1.467688
H         8.821532        1.248462       -2.012386
H         9.577646        0.684394       -0.262627
H         9.047081       -1.621360       -0.878818
H         8.643623       -0.934512       -2.411897
11
Step 474: 474.0 fs
Os       -1.098411        0.015646        0.151892
O        -0.834960       -1.285918        1.189263
O        -2.597350        0.681453        0.278069
O        -0.975505       -0.515045       -1.471070
O         0.092759        1.197251        0.512330
C         9.056195        0.442618       -1.163790
C         8.690048       -0.743732       -1.456381
H         8.841140        1.224338       -1.945006
H         9.590137        0.703846       -0.220378
H         9.003159       -1.591549       -0.885256
H         8.599638       -0.973265       -2.443749
11
Step 473: 473.0 fs
Os       -1.095762        0.015746        0.152083
O        -0.838118       -1.290548        1.187650
O        -2.601509        0.680440        0.283582
O        -0.975073       -0.513810       -1.475282
O         0.091312        1.199939        0.505475
C         9.043218        0.449562       -1.173990
C         8.678440       -0.747540       -1.444220
H         8.866093        1.197294       -1.868086
H         9.595767        0.724347       -0.183238
H         8.957417       -1.568233       -0.882289
H         8.540612       -1.018862       -2.506307
11
Step 472: 472.0 fs
Os       -1.092952        0.015834        0.152177
O        -0.841556       -1.295028        1.185962
O        -2.606675        0.679789        0.289535
O        -0.974501       -0.512255       -1.478405
O         0.089105        1.201946        0.498310
C         9.031850        0.458215       -1.180921
C         8.666958       -0.753011       -1.434583
H         8.889852        1.189087       -1.804913
H         9.588864        0.741553       -0.162057
H         8.914249       -1.562991       -0.861801
H         8.472089       -1.062480       -2.565555
11
Step 471: 471.0 fs
Os       -1.090015        0.015907        0.152171
O        -0.845244       -1.299293        1.184165
O        -2.612557        0.679383        0.295890
O        -0.973795       -0.510360       -1.480360
O         0.086212        1.203315        0.490879
C         9.022588        0.465815       -1.182380
C         8.655172       -0.759482       -1.429140
H         8.906534        1.225229       -1.779597
H         9.567532        0.752971       -0.161080
H         8.874934       -1.579485       -0.821460
H         8.399762       -1.098491       -2.601795
11
Step 470: 470.0 fs
Os       -1.086987        0.015967        0.152062
O        -0.849147       -1.303287        1.182226
O        -2.618844        0.679096        0.302602
O        -0.972959       -0.508113       -1.481104
O         0.082734        1.204114        0.483235
C         9.015176        0.471639       -1.178614
C         8.643029       -0.766965       -1.427936
H         8.916317        1.304467       -1.791937
H         9.532677        0.757474       -0.179398
H         8.837318       -1.609376       -0.767679
H         8.328377       -1.124076       -2.606280
11
Step 469: 469.0 fs
Os       -1.083908        0.016011        0.151852
O        -0.853232       -1.306966        1.180124
O        -2.625221        0.678806        0.309623
O        -0.971996       -0.505517       -1.480631
O         0.078795        1.204436        0.475433
C         9.008864        0.477220       -1.172011
C         8.630600       -0.775803       -1.430142
H         8.922783        1.397498       -1.820829
H         9.487789        0.755432       -0.211226
H         8.798645       -1.639092       -0.711368
H         8.261699       -1.138066       -2.576401
11
Step 468: 468.0 fs
Os       -1.080819        0.016038        0.151544
O        -0.857456       -1.310295        1.177844
O        -2.631389        0.678395        0.316903
O        -0.970907       -0.502589       -1.478978
O         0.074537        1.204394        0.467535
C         9.002750        0.483656       -1.165196
C         8.617951       -0.785995       -1.434656
H         8.928055        1.477757       -1.848393
H         9.439338        0.749398       -0.244925
H         8.757554       -1.657632       -0.662249
H         8.202459       -1.140520       -2.513838
11
Step 467: 467.0 fs
Os       -1.077760        0.016046        0.151143
O        -0.861777       -1.313253        1.175379
O        -2.637068        0.677759        0.324393
O        -0.969687       -0.499354       -1.476217
O         0.070121        1.204121        0.459606
C         8.995831        0.490812       -1.160567
C         8.605195       -0.796983       -1.440202
H         8.932710        1.530967       -1.865426
H         9.396331        0.744120       -0.263171
H         8.714127       -1.658836       -0.626655
H         8.151593       -1.133109       -2.425416
11
Step 466: 466.0 fs
Os       -1.074772        0.016034        0.150658
O        -0.866150       -1.315829        1.172735
O        -2.642012        0.676807        0.332042
O        -0.968334       -0.495849       -1.472463
O         0.065720        1.203764        0.451709
C         8.987296        0.497974       -1.159919
C         8.592689       -0.807717       -1.445097
H         8.936650        1.551143       -1.868100
H         9.366281        0.743974       -0.250609
H         8.669361       -1.640753       -0.607520
H         8.106089       -1.120192       -2.326050
11
Step 465: 465.0 fs
Os       -1.071890        0.015997        0.150097
O        -0.870530       -1.318028        1.169924
O        -2.646009        0.675464        0.339804
O        -0.966842       -0.492124       -1.467866
O         0.061512        1.203482        0.443911
C         8.977028        0.504605       -1.163446
C         8.581282       -0.816746       -1.447120
H         8.939456        1.536958       -1.855604
H         9.349368        0.748809       -0.207710
H         8.624806       -1.604861       -0.604508
H         8.055911       -1.109673       -2.240563
11
Step 464: 464.0 fs
Os       -1.069150        0.015935        0.149475
O        -0.874871       -1.319866        1.166969
O        -2.648888        0.673675        0.347629
O        -0.965205       -0.488241       -1.462616
O         0.057677        1.203433        0.436276
C         8.965534        0.510432       -1.169719
C         8.572071       -0.822549       -1.444430
H         8.940507        1.490919       -1.829674
H         9.339453        0.754284       -0.151204
H         8.582364       -1.556032       -0.613415
H         7.986824       -1.109731       -2.193596
11
Step 463: 463.0 fs
Os       -1.066580        0.015846        0.148805
O        -0.879126       -1.321372        1.163897
O        -2.650518        0.671400        0.355476
O        -0.963416       -0.484271       -1.456929
O         0.054384        1.203770        0.428864
C         8.953423        0.514940       -1.176738
C         8.565048       -0.824196       -1.437608
H         8.939104        1.421272       -1.795806
H         9.330148        0.756078       -0.100163
H         8.543917       -1.503050       -0.625058
H         7.896885       -1.120416       -2.186706
11
Step 462: 462.0 fs
Os       -1.064206        0.015730        0.148104
O        -0.883247       -1.322582        1.160747
O        -2.650811        0.668616        0.363303
O        -0.961469       -0.480293       -1.451052
O         0.051785        1.204631        0.421732
C         8.941136        0.516799       -1.182413
C         8.558711       -0.821359       -1.429421
H         8.934663        1.346190       -1.766094
H         9.317602        0.751971       -0.067583
H         8.510510       -1.457763       -0.625980
H         7.802116       -1.133926       -2.200176
11
Step 461: 461.0 fs
Os       -1.062047        0.015590        0.147390
O        -0.887190       -1.323546        1.157557
O        -2.649716        0.665318        0.371073
O        -0.959359       -0.476392       -1.445247
O         0.050007        1.206128        0.414925
C         8.928931        0.513792       -1.184528
C         8.551461       -0.814019       -1.422399
H         8.926973        1.294758       -1.760406
H         9.300220        0.741591       -0.059955
H         8.481883       -1.429913       -0.604771
H         7.720542       -1.143060       -2.215300
11
Step 460: 460.0 fs
Os       -1.060115        0.015429        0.146681
O        -0.890911       -1.324314        1.154373
O        -2.647227        0.661515        0.378756
O        -0.957081       -0.472655       -1.439784
O         0.049142        1.208342        0.408483
C         8.916940        0.504520       -1.181679
C         8.542233       -0.802900       -1.417399
H         8.916330        1.288227       -1.794026
H         9.278042        0.725717       -0.078611
H         8.457531       -1.420061       -0.561672
H         7.663445       -1.144001       -2.221771
11
Step 459: 459.0 fs
Os       -1.058415        0.015254        0.145995
O        -0.894367       -1.324946        1.151239
O        -2.643375        0.657234        0.386322
O        -0.954634       -0.469167       -1.434932
O         0.049244        1.211314        0.402432
C         8.905226        0.490665       -1.174930
C         8.530309       -0.789589       -1.413805
H         8.903222        1.314380       -1.857584
H         9.252706        0.706015       -0.119738
H         8.437800       -1.420293       -0.508785
H         7.636157       -1.135251       -2.215296
11
Step 458: 458.0 fs
Os       -1.056947        0.015074        0.145352
O        -0.897521       -1.325499        1.148201
O        -2.638232        0.652514        0.393751
O        -0.952019       -0.466010       -1.430941
O         0.050324        1.215043        0.396791
C         8.893750        0.475390       -1.167015
C         8.515199       -0.775941       -1.410570
H         8.888127        1.345439       -1.927734
H         9.227972        0.685448       -0.172962
H         8.423397       -1.421432       -0.460544
H         7.640034       -1.116737       -2.195108
11
Step 457: 457.0 fs
Os       -1.055700        0.014897        0.144765
O        -0.900336       -1.326027        1.145302
O        -2.631905        0.647412        0.401026
O        -0.949239       -0.463253       -1.428030
O         0.052353        1.219483        0.391566
C         8.882293        0.461071       -1.160802
C         8.496701       -0.763553       -1.406817
H         8.871584        1.362492       -1.986546
H         9.210261        0.668832       -0.220120
H         8.414591       -1.417370       -0.427169
H         7.672838       -1.089754       -2.163358
11
Step 456: 456.0 fs
Os       -1.054658        0.014735        0.144248
O        -0.902779       -1.326584        1.142578
O        -2.624544        0.641995        0.408140
O        -0.946302       -0.460952       -1.426371
O         0.055259        1.224550        0.386757
C         8.870545        0.449081       -1.158657
C         8.475099       -0.753517       -1.401755
H         8.854151        1.357259       -2.024514
H         9.207188        0.661891       -0.240300
H         8.410981       -1.405467       -0.413803
H         7.727123       -1.057719       -2.126565
11
Step 455: 455.0 fs
Os       -1.053799        0.014598        0.143808
O        -0.904822       -1.327216        1.140066
O        -2.616332        0.636346        0.415090
O        -0.943224       -0.459143       -1.426082
O         0.058936        1.230123        0.382354
C         8.858543        0.440396       -1.161384
C         8.451438       -0.746276       -1.394277
H         8.836354        1.327667       -2.037747
H         9.221927        0.667370       -0.225793
H         8.411559       -1.385911       -0.421446
H         7.787318       -1.027476       -2.098944
11
Step 454: 454.0 fs
Os       -1.053093        0.014495        0.143447
O        -0.906441       -1.327963        1.137792
O        -2.607484        0.630559        0.421883
O        -0.940024       -0.457844       -1.427216
O         0.063249        1.236052        0.378343
C         8.846951        0.435947       -1.167735
C         8.427445       -0.741583       -1.382824
H         8.818701        1.275445       -2.026188
H         9.249285        0.682389       -0.190309
H         8.414856       -1.361559       -0.447230
H         7.831100       -1.009036       -2.103149
11
Step 453: 453.0 fs
Os       -1.052506        0.014433        0.143164
O        -0.907614       -1.328851        1.135774
O        -2.598245        0.624740        0.428533
O        -0.936727       -0.457050       -1.429757
O         0.068044        1.242171        0.374706
C         8.836639        0.436260       -1.175579
C         8.404154       -0.738958       -1.366784
H         8.801724        1.206455       -1.994040
H         9.280164        0.701531       -0.154820
H         8.419212       -1.338607       -0.483323
H         7.846022       -1.008634       -2.154467
11
Step 452: 452.0 fs
Os       -1.052000        0.014417        0.142951
O        -0.908324       -1.329897        1.134023
O        -2.588886        0.619003        0.435062
O        -0.933366       -0.456739       -1.433624
O         0.073151        1.248298        0.371420
C         8.828199        0.440821       -1.182739
C         8.380742       -0.738123       -1.348447
H         8.785815        1.133448       -1.952851
H         9.306973        0.720450       -0.134539
H         8.423302       -1.327438       -0.515751
H         7.843377       -1.021477       -2.238772
11
Step 451: 451.0 fs
Os       -1.051535        0.014450        0.142796
O        -0.908558       -1.331105        1.132540
O        -2.579690        0.613468        0.441498
O        -0.929976       -0.456867       -1.438676
O         0.078399        1.254255        0.368463
C         8.821841        0.447666       -1.186773
C         8.356004       -0.738513       -1.331479
H         8.770639        1.078764       -1.925503
H         9.325082        0.736741       -0.137130
H         8.426714       -1.340273       -0.528359
H         7.840365       -1.038609       -2.327097
11
Step 450: 450.0 fs
Os       -1.051069        0.014529        0.142680
O        -0.908304       -1.332468        1.131319
O        -2.570949        0.608256        0.447874
O        -0.926598       -0.457375       -1.444719