9
Step 501: 501.0 fs
O         2.440191        0.907898       -0.467639
O         2.223992       -0.340600       -0.329156
O         3.057728       -1.027290        0.167000
C        -3.646410       -0.089603        0.090775
H        -3.927138       -1.227334       -0.081846
H        -2.701135        0.482962       -0.323110
C        -4.735800        0.613234        0.639683
H        -5.566919        0.021658        1.015857
H        -4.777424        1.800117        0.512295
9
Step 500: 500.0 fs
O         2.442110        0.907100       -0.465715
O         2.211696       -0.339503       -0.331076
O         3.060173       -1.026457        0.167908
C        -3.639991       -0.092290        0.086406
H        -3.944231       -1.173167       -0.038039
H        -2.735391        0.500654       -0.310494
C        -4.726223        0.604243        0.639089
H        -5.605952        0.034178        1.017319
H        -4.751634        1.836798        0.499027
9
Step 499: 499.0 fs
O         2.443816        0.905006       -0.463639
O         2.199128       -0.336762       -0.333423
O         3.063102       -1.025973        0.169092
C        -3.636100       -0.093460        0.082793
H        -3.946309       -1.111248        0.006567
H        -2.782696        0.504180       -0.293841
C        -4.714598        0.596473        0.636750
H        -5.640669        0.053236        1.016093
H        -4.726376        1.840761        0.495390
9
Step 498: 498.0 fs
O         2.445196        0.901631       -0.461460
O         2.186842       -0.332601       -0.335919
O         3.066075       -1.025628        0.170322
C        -3.635093       -0.092112        0.080529
H        -3.936659       -1.062350        0.048259
H        -2.832734        0.498094       -0.277623
C        -4.701668        0.590225        0.632929
H        -5.664388        0.080592        1.010156
H        -4.702311        1.810956        0.501380
9
Step 497: 497.0 fs
O         2.446151        0.897058       -0.459233
O         2.175339       -0.327285       -0.338301
O         3.068688       -1.025240        0.171390
C        -3.637359       -0.087513        0.080139
H        -3.920121       -1.048803        0.084909
H        -2.871262        0.490829       -0.267987
C        -4.688150        0.585651        0.627931
H        -5.672920        0.115829        0.998714
H        -4.679860        1.751184        0.516197
9
Step 496: 496.0 fs
O         2.446610        0.891440       -0.457015
O         2.165035       -0.321109       -0.340343
O         3.070599       -1.024667        0.172128
C        -3.643339       -0.080280        0.081874
H        -3.897891       -1.078205        0.116275
H        -2.884843        0.491336       -0.270730
C        -4.674718        0.582564        0.622114
H        -5.665162        0.156578        0.982294
H        -4.659084        1.671990        0.538115
9
Step 495: 495.0 fs
O         2.446526        0.885008       -0.454865
O         2.156240       -0.314401       -0.341859
O         3.071542       -1.023814        0.172408
C        -3.652847       -0.072401        0.085487
H        -3.866254       -1.135870        0.142219
H        -2.869947        0.501894       -0.287138
C        -4.662003        0.580074        0.615914
H        -5.643582        0.198827        0.962741
H        -4.639449        1.594718        0.564430
9
Step 494: 494.0 fs
O         2.445888        0.878073       -0.452845
O         2.149156       -0.307520       -0.342704
O         3.071329       -1.022630        0.172147
C        -3.664329       -0.065870        0.090142
H        -3.822151       -1.198640        0.161857
H        -2.836268        0.515662       -0.312150
C        -4.650585        0.576535        0.609799
H        -5.614601        0.237275        0.943162
H        -4.619509        1.551695        0.592275
9
Step 493: 493.0 fs
O         2.444720        0.871021       -0.451018
O         2.143872       -0.300864       -0.342770
O         3.069844       -1.021104        0.171301
C        -3.675313       -0.062117        0.094662
H        -3.766282       -1.248174        0.174295
H        -2.798703        0.523221       -0.337954
C        -4.640958        0.571149        0.604124
H        -5.588129        0.266116        0.927605
H        -4.597329        1.566336        0.620423
9
Step 492: 492.0 fs
O         2.443079        0.864299       -0.449446
O         2.140379       -0.294858       -0.341986
O         3.067041       -1.019259        0.169860
C        -3.683282       -0.062182        0.097901
H        -3.702124       -1.273868        0.179139
H        -2.769267        0.518295       -0.358012
C        -4.633510        0.566014        0.599215
H        -5.574574        0.280765        0.920006
H        -4.572314        1.626275        0.648618
9
Step 491: 491.0 fs
O         2.441051        0.858392       -0.448189
O         2.138577       -0.289936       -0.340314
O         3.062934       -1.017146        0.167846
C        -3.686293       -0.066722        0.099003
H        -3.634314       -1.271461        0.176575
H        -2.754853        0.498644       -0.368404
C        -4.628677        0.564411        0.595551
H        -5.578923        0.279926        0.922292
H        -4.545934        1.699571        0.675276
9
Step 490: 490.0 fs
O         2.438738        0.853778       -0.447300
O         2.138292       -0.286497       -0.337749
O         3.057596       -1.014842        0.165308
C        -3.683390       -0.075816        0.097602
H        -3.567589       -1.241937        0.167318
H        -2.757690        0.465259       -0.367723
C        -4.626977        0.568290        0.593613
H        -5.597111        0.266049        0.933204
H        -4.520488        1.761485        0.698166
9
Step 489: 489.0 fs
O         2.436242        0.850869       -0.446820
O         2.139294       -0.284857       -0.334324
O         3.051151       -1.012445        0.162319
C        -3.674858       -0.088756        0.093916
H        -3.506087       -1.192048        0.152622
H        -2.775589        0.421957       -0.356964
C        -4.628613        0.577899        0.593602
H        -5.619198        0.243819        0.949288
H        -4.498140        1.798847        0.715515
9
Step 488: 488.0 fs
O         2.433651        0.849958       -0.446777
O         2.141316       -0.285183       -0.330112
O         3.043782       -1.010081        0.158979
C        -3.662257       -0.103954        0.088709
H        -3.452402       -1.136364        0.134343
H        -2.801193        0.375745       -0.339888
C        -4.633116        0.592316        0.595319
H        -5.635214        0.218356        0.966819
H        -4.480665        1.806212        0.726223
9
Step 487: 487.0 fs
O         2.431023        0.851170       -0.447174
O         2.144062       -0.287448       -0.325234
O         3.035726       -1.007899        0.155415
C        -3.648193       -0.119131        0.083123
H        -3.406428       -1.097949        0.114816
H        -2.821353        0.337064       -0.323296
C        -4.639452        0.609948        0.598269
H        -5.638407        0.194184        0.982959
H        -4.469339        1.783483        0.729863
9
Step 486: 486.0 fs
O         2.428383        0.854441       -0.447991
O         2.147209       -0.291408       -0.319863
O         3.027282       -1.006082        0.151777
C        -3.635564       -0.132145        0.078374
H        -3.365983       -1.099499        0.096065
H        -2.820594        0.317402       -0.315167
C        -4.646410        0.628833        0.601845
H        -5.625877        0.174789        0.996051
H        -4.464618        1.736266        0.726824
9
Step 485: 485.0 fs
O         2.425727        0.859540       -0.449186
O         2.150405       -0.296618       -0.314219
O         3.018803       -1.004843        0.148245
C        -3.626024       -0.142196        0.075245
H        -3.331363       -1.144226        0.078878
H        -2.791984        0.322263       -0.319143
C        -4.652935        0.646620        0.605412
H        -5.598286        0.162310        1.005636
H        -4.465364        1.678557        0.718647
9
Step 484: 484.0 fs
O         2.423033        0.866106       -0.450694
O         2.153268       -0.302474       -0.308564
O         3.010696       -1.004424        0.145016
C        -3.619152       -0.149730        0.073745
H        -3.307395       -1.212817        0.063245
H        -2.744505        0.346352       -0.331116
C        -4.658266        0.660463        0.608309
H        -5.559584        0.157163        1.012513
H        -4.467896        1.635159        0.708187
9
Step 483: 483.0 fs
O         2.420270        0.873709       -0.452441
O         2.155401       -0.308294       -0.303181
O         3.003388       -1.005078        0.142296
C        -3.613577       -0.155314        0.073439
H        -3.299157       -1.281433        0.049282
H        -2.694823        0.378532       -0.343553
C        -4.661782        0.667713        0.609894
H        -5.516850        0.157576        1.018909
H        -4.467099        1.633413        0.698417
9
Step 482: 482.0 fs
O         2.417413        0.881901       -0.454343
O         2.156426       -0.313400       -0.298339
O         2.997282       -1.007035        0.140274
C        -3.608210       -0.159213        0.073903
H        -3.308996       -1.333199        0.037366
H        -2.656644        0.408704       -0.350578
C        -4.662525        0.667991        0.609709
H        -5.479645        0.159505        1.028505
H        -4.461727        1.678247        0.689879
9
Step 481: 481.0 fs
O         2.414442        0.890258       -0.456319
O         2.156045       -0.317204       -0.294261
O         2.992695       -1.010459        0.139089
C        -3.602524       -0.161496        0.074870
H        -3.336695       -1.358903        0.027950
H        -2.637783        0.430136       -0.349182
C        -4.659241        0.663531        0.607541
H        -5.457144        0.158270        1.045316
H        -4.456203        1.746096        0.680844
9
Step 480: 480.0 fs
O         2.411344        0.898394       -0.458293
O         2.154101       -0.319275       -0.291084
O         2.989797       -1.015395        0.138804
C        -3.596435       -0.162142        0.076203
H        -3.380365       -1.355002        0.021418
H        -2.641144        0.439159       -0.338603
C        -4.651234        0.656781        0.603424
H        -5.452808        0.152161        1.070851
H        -4.455355        1.809410        0.669844
9
Step 479: 479.0 fs
O         2.408112        0.905978       -0.460196
O         2.150619       -0.319378       -0.288842
O         2.988571       -1.021747        0.139385
C        -3.590181       -0.161070        0.077876
H        -3.436985       -1.322695        0.017984
H        -2.665609        0.434756       -0.319820
C        -4.638830        0.649069        0.597748
H        -5.461800        0.144250        1.102035
H        -4.461427        1.850544        0.656409
9
Step 478: 478.0 fs
O         2.404743        0.912731       -0.461971
O         2.145807       -0.317477       -0.287467
O         2.988811       -1.029272        0.140703
C        -3.584318       -0.158105        0.079978
H        -3.502674       -1.268694        0.017549
H        -2.705761        0.418807       -0.295616
C        -4.623051        0.640880        0.591177
H        -5.474599        0.139897        1.132646
H        -4.474456        1.861101        0.640674
9
Step 477: 477.0 fs
O         2.401237        0.918426       -0.463568
O         2.140016       -0.313704       -0.286811
O         2.990165       -1.037611        0.142562
C        -3.579768       -0.152924        0.082772
H        -3.573217       -1.207004        0.019523
H        -2.750582        0.396989       -0.271107
C        -4.605115        0.632422        0.584420
H        -5.482250        0.143292        1.156393
H        -4.493145        1.838909        0.623048
9
Step 476: 476.0 fs
O         2.397599        0.922893       -0.464947
O         2.133676       -0.308309       -0.286676
O         2.992201       -1.046344        0.144725
C        -3.577712       -0.145157        0.086701
H        -3.645368       -1.158298        0.022736
H        -2.783131        0.378991       -0.253892
C        -4.586210        0.623864        0.578107
H        -5.478867        0.156030        1.168730
H        -4.515372        1.786942        0.604100
9
Step 475: 475.0 fs
O         2.393839        0.926019       -0.466078
O         2.127222       -0.301609       -0.286856
O         2.994472       -1.055042        0.146956
C        -3.578973       -0.134881        0.092120
H        -3.717782       -1.140398        0.025925
H        -2.786470        0.374411       -0.251600
C        -4.567469        0.615271        0.572760
H        -5.462072        0.177155        1.167395
H        -4.538482        1.714522        0.584509
9
Step 474: 474.0 fs
O         2.389976        0.927751       -0.466943
O         2.121046       -0.293952       -0.287152
O         2.996567       -1.063302        0.149037
C        -3.583044       -0.123129        0.098730
H        -3.788777       -1.153850        0.028697
H        -2.756878        0.384060       -0.266284
C        -4.549988        0.606381        0.568814
H        -5.433013        0.203508        1.152612
H        -4.559751        1.639968        0.564897
9
Step 473: 473.0 fs
O         2.386044        0.928101       -0.467532
O         2.115459       -0.285699       -0.287394
O         2.998142       -1.070778        0.150788
C        -3.587978       -0.111633        0.105406
H        -3.853658       -1.183143        0.031679
H        -2.707763        0.398552       -0.292486
C        -4.534713        0.596596        0.566614
H        -5.396747        0.229968        1.127463
H        -4.577305        1.590001        0.545393
9
Step 472: 472.0 fs
O         2.382087        0.927153       -0.467848
O         2.110680       -0.277211       -0.287441
O         2.998932       -1.077189        0.152070
C        -3.591363       -0.102245        0.110720
H        -3.906332       -1.210990        0.035733
H        -2.657580        0.407069       -0.322139
C        -4.522275        0.585997        0.566368
H        -5.362639        0.249864        1.098118
H        -4.590631        1.585931        0.525386
9
Step 471: 471.0 fs
O         2.378170        0.925059       -0.467902
O         2.106833       -0.268861       -0.287179
O         2.998750       -1.082318        0.152783
C        -3.591149       -0.096546        0.113462
H        -3.941871       -1.226213        0.041333
H        -2.620038        0.402964       -0.348823
C        -4.512999        0.576699        0.568044
H        -5.343064        0.256367        1.072753
H        -4.599102        1.623697        0.504641
9
Step 470: 470.0 fs
O         2.374372        0.922042       -0.467720
O         2.103954       -0.261023       -0.286520
O         2.997480       -1.086011        0.152862
C        -3.586074       -0.095541        0.112879
H        -3.957372       -1.223955        0.048452
H        -2.602468        0.383732       -0.368647
C        -4.507093        0.571795        0.571433
H        -5.347581        0.245425        1.057562
H        -4.601301        1.680132        0.484510
9
Step 469: 469.0 fs
O         2.370789        0.918388       -0.467336
O         2.102002       -0.254084       -0.285394
O         2.995067       -1.088170        0.152274
C        -3.575938       -0.099434        0.108831
H        -3.951889       -1.204181        0.056671
H        -2.606899        0.349727       -0.379959
C        -4.504806        0.573194        0.576406
H        -5.375261        0.218361        1.052290
H        -4.596449        1.733209        0.467262
9
Step 468: 468.0 fs
O         2.367528        0.914428       -0.466794
O         2.100872       -0.248423       -0.283752
O         2.991510       -1.088745        0.151011
C        -3.561692       -0.107559        0.101843
H        -3.926479       -1.171268        0.065315
H        -2.630385        0.303652       -0.383417
C        -4.506255        0.581006        0.582855
H        -5.414858        0.181273        1.051144
H        -4.585010        1.769299        0.455019
9
Step 467: 467.0 fs
O         2.364697        0.910516       -0.466142
O         2.100408       -0.244396       -0.281560
O         2.986855       -1.087734        0.149089
C        -3.545268       -0.118504        0.093057
H        -3.884671       -1.134943        0.073683
H        -2.663886        0.250905       -0.382781
C        -4.511003        0.594069        0.590422
H        -5.452666        0.141910        1.047722
H        -4.568375        1.781970        0.449321
9
Step 466: 466.0 fs
O         2.362401        0.906984       -0.465428
O         2.100421       -0.242296       -0.278807
O         2.981187       -1.085177        0.146544
C        -3.529213       -0.130373        0.084070
H        -3.832761       -1.110920        0.081409
H        -2.691139        0.199906       -0.385855
C        -4.518045        0.610594        0.598468
H        -5.478366        0.107178        1.037994
H        -4.548488        1.770345        0.450977
9
Step 465: 465.0 fs
O         2.360723        0.904112       -0.464696
O         2.100702       -0.242314       -0.275507
O         2.974634       -1.081160        0.143434
C        -3.516069       -0.141230        0.076525
H        -3.778135       -1.116722        0.088918
H        -2.692930        0.159966       -0.402622
C        -4.526124        0.628506        0.606277
H        -5.486318        0.082227        1.020583
H        -4.527520        1.739140        0.459867
9
Step 464: 464.0 fs
O         2.359717        0.902082       -0.463975
O         2.101028       -0.244498       -0.271706
O         2.967362       -1.075821        0.139837
C        -3.507318       -0.149798        0.071347
H        -3.724940       -1.159328        0.097241
H        -2.661427        0.135381       -0.437311
C        -4.534021        0.645508        0.613250
H        -5.475093        0.070212        0.996186
H        -4.507419        1.700043        0.474628
9
Step 463: 463.0 fs
O         2.359402        0.900962       -0.463283
O         2.101172       -0.248721       -0.267492
O         2.959582       -1.069353        0.135853
C        -3.502764       -0.155996        0.068314
H        -3.672543       -1.226808        0.106990
H        -2.608773        0.122851       -0.482659
C        -4.540674        0.659153        0.618972
H        -5.447149        0.071949        0.967117
H        -4.489235        1.671768        0.492633
9
Step 462: 462.0 fs
O         2.359754        0.900703       -0.462617
O         2.100892       -0.254674       -0.262991
O         2.951556       -1.062015        0.131609
C        -3.501295       -0.160568        0.066676
H        -3.619508       -1.297728        0.117891
H        -2.554960        0.116659       -0.526330
C        -4.545083        0.667504        0.623089
H        -5.409250        0.085087        0.937205
H        -4.472771        1.672863        0.511136
9
Step 461: 461.0 fs
O         2.360715        0.901156       -0.461963
O         2.099930       -0.261881       -0.258372
O         2.943604       -1.054137        0.127261
C        -3.501793       -0.164306        0.065809
H        -3.566409       -1.354044        0.129249
H        -2.515287        0.112870       -0.558572
C        -4.546079        0.670411        0.625093
H        -5.373088        0.103249        0.911764
H        -4.457697        1.706820        0.529274
9
Step 460: 460.0 fs
O         2.362194        0.902108       -0.461298
O         2.098006       -0.269730       -0.253839
O         2.936094       -1.046114        0.122987
C        -3.503416       -0.167722        0.065346
H        -3.515477       -1.385067        0.140406
H        -2.498065        0.109717       -0.573921
C        -4.542303        0.669684        0.624370
H        -5.353453        0.117196        0.896716
H        -4.444876        1.758487        0.547979
9
Step 459: 459.0 fs
O         2.364077        0.903320       -0.460597
O         2.094828       -0.277537       -0.249611
O         2.929431       -1.038393        0.118983
C        -3.505578       -0.171043        0.065115
H        -3.469583       -1.386349        0.150929
H        -2.506323        0.106906       -0.570299
C        -4.532912        0.667416        0.620580
H        -5.360134        0.120709        0.895813
H        -4.435642        1.807730        0.567946
9
Step 458: 458.0 fs
O         2.366236        0.904554       -0.459839
O         2.090126       -0.284609       -0.245904
O         2.924017       -1.031430        0.115443
C        -3.507915       -0.174280        0.065080
H        -3.431608       -1.358382        0.160679
H        -2.538975        0.105237       -0.548355
C        -4.518411        0.664582        0.613958
H        -5.389061        0.116590        0.907937
H        -4.430583        1.839972        0.588720
9
Step 457: 457.0 fs
O         2.368530        0.905597       -0.459006
O         2.083705       -0.290328       -0.242898
O         2.920185       -1.025630        0.112529
C        -3.510353       -0.177237        0.065352
H        -3.404025       -1.306661        0.169916
H        -2.590456        0.106746       -0.511691
C        -4.500400        0.661166        0.605189
H        -5.425593        0.113632        0.928246
H        -4.429281        1.847694        0.609003
9
Step 456: 456.0 fs
O         2.370811        0.906274       -0.458092
O         2.075517       -0.294220       -0.240705
O         2.918131       -1.021288        0.110347
C        -3.513288       -0.179442        0.066251
H        -3.388355       -1.243183        0.179517
H        -2.649110        0.115330       -0.467827
C        -4.480687        0.656890        0.595098
H        -5.454778        0.119467        0.951429
H        -4.430569        1.829082        0.627126
9
Step 455: 455.0 fs
O         2.372931        0.906446       -0.457094
O         2.065706       -0.296014       -0.239352
O         2.917863       -1.018541        0.108921
C        -3.517680       -0.180101        0.068292
H        -3.384389       -1.187684        0.191231
H        -2.696628        0.137241       -0.428357
C        -4.460851        0.651517        0.584478
H        -5.466560        0.137708        0.973442
H        -4.432799        1.787365        0.641397
9
Step 454: 454.0 fs
O         2.374742        0.906016       -0.456020
O         2.054620       -0.295644       -0.238772
O         2.919176       -1.017355        0.108193
C        -3.524450       -0.178346        0.071810
H        -3.390013       -1.162915        0.207262
H        -2.715004        0.178854       -0.404333
C        -4.442227        0.644808        0.574064
H        -5.456116        0.168394        0.991761
H        -4.434049        1.731393        0.650440
9
Step 453: 453.0 fs
O         2.376109        0.904925       -0.454882
O         2.042772       -0.293231       -0.238828
O         2.921696       -1.017551        0.108037
C        -3.533026       -0.174019        0.076353
H        -3.402937       -1.179212        0.228183
H        -2.701491        0.239884       -0.397229
C        -4.425999        0.636449        0.564534
H        -5.423137        0.208919        1.005307
H        -4.432379        1.676243        0.653576
9
Step 452: 452.0 fs
O         2.376907        0.903159       -0.453698
O         2.030770       -0.289029       -0.239336
O         2.924937       -1.018861        0.108287
C        -3.541026       -0.168314        0.080791
H        -3.422495       -1.224359        0.251133
H        -2.670528        0.310527       -0.398571
C        -4.413177        0.626273        0.556481
H        -5.371857        0.254509        1.014703
H        -4.426111        1.640508        0.650920
9
Step 451: 451.0 fs
O         2.377037        0.900745       -0.452491
O         2.019227       -0.283369       -0.240098
O         2.928385       -1.020982        0.108769
C        -3.545699       -0.163212        0.084001
H        -3.448491       -1.275863        0.271562
H        -2.639269        0.378050       -0.399019
C        -4.404397        0.614950        0.550357
H        -5.311916        0.298451        1.023077
H        -4.413849        1.636723        0.642559
9
Step 450: 450.0 fs
O         2.376428        0.897762       -0.451290
O         2.008699       -0.276623       -0.240924
O         2.931559       -1.023619        0.109320
C        -3.545023       -0.160471        0.085191
H        -3.479667       -1.315634        0.285770
H        -2.618934        0.432434       -0.393170
C        -4.399646        0.604466        0.546346
H        -5.258612        0.332974        1.036884
H        -4.394530        1.661886        0.627604
9
Step 449: 449.0 fs
O         2.375040        0.894339       -0.450129
O         1.999633       -0.269178       -0.241643
O         2.934046       -1.026515        0.109804
C        -3.538047       -0.161107        0.083982
H        -3.513651       -1.333644        0.291629
H        -2.614647        0.467343       -0.379265
C        -4.398259        0.597310        0.544253
H        -5.228456        0.351794        1.064410
H        -4.368138        1.701056        0.604929
9
Step 448: 448.0 fs
O         2.372875        0.890662       -0.449049
O         1.992352       -0.261431       -0.242107
O         2.935525       -1.029459        0.110115
C        -3.524944       -0.165252        0.080459
H        -3.547456       -1.326561        0.288333
H        -2.627056        0.479543       -0.357982
C        -4.399573        0.595071        0.543803
H        -5.228078        0.353507        1.109395
H        -4.336235        1.738163        0.574567
9
Step 447: 447.0 fs
O         2.369972        0.886969       -0.448097
O         1.987048       -0.253785       -0.242194
O         2.935763       -1.032285        0.110177
C        -3.506949       -0.172245        0.075164
H        -3.577956       -1.296605        0.276128
H        -2.652863        0.468837       -0.331922
C        -4.403411        0.597906        0.545033
H        -5.248571        0.342193        1.165816
H        -4.301543        1.761853        0.537992
9
Step 446: 446.0 fs
O         2.366410        0.883542       -0.447323
O         1.983789       -0.246648       -0.241803
O         2.934614       -1.034870        0.109939
C        -3.486193       -0.180870        0.069005
H        -3.602476       -1.251900        0.256343
H        -2.683995        0.439069       -0.305840
C        -4.409576        0.604906        0.548084
H        -5.274476        0.324267        1.222150
H        -4.267232        1.766303        0.497657
9
Step 445: 445.0 fs
O         2.362304        0.880697       -0.446781
O         1.982531       -0.240422       -0.240852
O         2.932005       -1.037126        0.109374
C        -3.465424       -0.189675        0.063125
H        -3.619713       -1.207327        0.231529
H        -2.706338        0.399656       -0.287110
C        -4.417401        0.614650        0.552841
H        -5.293430        0.305629        1.268123
H        -4.236318        1.750731        0.456444
9
Step 444: 444.0 fs
O         2.357792        0.878755       -0.446524
O         1.983142       -0.235486       -0.239280
O         2.927935       -1.038994        0.108472
C        -3.447466       -0.197277        0.058689
H        -3.630542       -1.182464        0.205006
H        -2.701904        0.364292       -0.284648
C        -4.425883        0.625538        0.558924
H        -5.298516        0.290715        1.297200
H        -4.211161        1.719134        0.417102
9
Step 443: 443.0 fs
O         2.353022        0.878007       -0.446595
O         1.985413       -0.232164       -0.237050
O         2.922460       -1.040444        0.107240
C        -3.434187       -0.202513        0.056511
H        -3.636928       -1.191974        0.179139
H        -2.660143        0.341806       -0.303740
C        -4.433974        0.635932        0.565845
H        -5.287338        0.282431        1.306464
H        -4.192947        1.680139        0.381605
9
Step 442: 442.0 fs
O         2.348139        0.878678       -0.447027
O         1.989086       -0.230684       -0.234152
O         2.915695       -1.041471        0.105703
C        -3.425706       -0.204718        0.056696
H        -3.638833       -1.233725        0.153881
H        -2.589752        0.327411       -0.340608
C        -4.440744        0.644270        0.573102
H        -5.261212        0.282075        1.296287
H        -4.181381        1.645740        0.350579
9
Step 441: 441.0 fs
O         2.343266        0.880887       -0.447829
O         1.993866       -0.231135       -0.230616
O         2.907812       -1.042105        0.103897
C        -3.421058       -0.204100        0.058804
H        -3.633709       -1.290696        0.128071
H        -2.511512        0.309767       -0.385465
C        -4.445296        0.649386        0.580120
H        -5.225362        0.288870        1.270705
H        -4.175184        1.627428        0.323437
9
Step 440: 440.0 fs
O         2.338496        0.884623       -0.448985
O         1.999427       -0.233443       -0.226512
O         2.899045       -1.042411        0.101878
C        -3.419196       -0.201481        0.062247
H        -3.619253       -1.343731        0.101498
H        -2.444212        0.281218       -0.428943
C        -4.446503        0.651005        0.586033
H        -5.189809        0.299226        1.238260
H        -4.173698        1.630337        0.299799
9
Step 439: 439.0 fs
O         2.333890        0.889744       -0.450454
O         2.005409       -0.237349       -0.221958
O         2.889690       -1.042502        0.099721
C        -3.419299       -0.197768        0.066481